 Entering Gaussian System, Link 0=/home/apps/gaussian_6_9/g09/g09
 Initial command:
 /home/apps/gaussian_6_9/g09/l1.exe /scratch/Gau-32001.inp -scrdir=/scratch/
 Entering Link 1 = /home/apps/gaussian_6_9/g09/l1.exe PID=     32002.
  
 Copyright (c) 1988,1990,1992,1993,1995,1998,2003,2009, Gaussian, Inc.
                  All Rights Reserved.
  
 This is part of the Gaussian(R) 09 program.  It is based on
 the Gaussian(R) 03 system (copyright 2003, Gaussian, Inc.),
 the Gaussian(R) 98 system (copyright 1998, Gaussian, Inc.),
 the Gaussian(R) 94 system (copyright 1995, Gaussian, Inc.),
 the Gaussian 92(TM) system (copyright 1992, Gaussian, Inc.),
 the Gaussian 90(TM) system (copyright 1990, Gaussian, Inc.),
 the Gaussian 88(TM) system (copyright 1988, Gaussian, Inc.),
 the Gaussian 86(TM) system (copyright 1986, Carnegie Mellon
 University), and the Gaussian 82(TM) system (copyright 1983,
 Carnegie Mellon University). Gaussian is a federally registered
 trademark of Gaussian, Inc.
  
 This software contains proprietary and confidential information,
 including trade secrets, belonging to Gaussian, Inc.
  
 This software is provided under written license and may be
 used, copied, transmitted, or stored only in accord with that
 written license.
  
 The following legend is applicable only to US Government
 contracts under FAR:
  
                    RESTRICTED RIGHTS LEGEND
  
 Use, reproduction and disclosure by the US Government is
 subject to restrictions as set forth in subparagraphs (a)
 and (c) of the Commercial Computer Software - Restricted
 Rights clause in FAR 52.227-19.
  
 Gaussian, Inc.
 340 Quinnipiac St., Bldg. 40, Wallingford CT 06492
  
  
 ---------------------------------------------------------------
 Warning -- This program may not be used in any manner that
 competes with the business of Gaussian, Inc. or will provide
 assistance to any competitor of Gaussian, Inc.  The licensee
 of this program is prohibited from giving any competitor of
 Gaussian, Inc. access to this program.  By using this program,
 the user acknowledges that Gaussian, Inc. is engaged in the
 business of creating and licensing software in the field of
 computational chemistry and represents and warrants to the
 licensee that it is not a competitor of Gaussian, Inc. and that
 it will not use this program in any manner prohibited above.
 ---------------------------------------------------------------
  

 Cite this work as:
 Gaussian 09, Revision A.01,
 M. J. Frisch, G. W. Trucks, H. B. Schlegel, G. E. Scuseria, 
 M. A. Robb, J. R. Cheeseman, G. Scalmani, V. Barone, B. Mennucci, 
 G. A. Petersson, H. Nakatsuji, M. Caricato, X. Li, H. P. Hratchian, 
 A. F. Izmaylov, J. Bloino, G. Zheng, J. L. Sonnenberg, M. Hada, 
 M. Ehara, K. Toyota, R. Fukuda, J. Hasegawa, M. Ishida, T. Nakajima, 
 Y. Honda, O. Kitao, H. Nakai, T. Vreven, J. A. Montgomery, Jr., 
 J. E. Peralta, F. Ogliaro, M. Bearpark, J. J. Heyd, E. Brothers, 
 K. N. Kudin, V. N. Staroverov, R. Kobayashi, J. Normand, 
 K. Raghavachari, A. Rendell, J. C. Burant, S. S. Iyengar, J. Tomasi, 
 M. Cossi, N. Rega, J. M. Millam, M. Klene, J. E. Knox, J. B. Cross, 
 V. Bakken, C. Adamo, J. Jaramillo, R. Gomperts, R. E. Stratmann, 
 O. Yazyev, A. J. Austin, R. Cammi, C. Pomelli, J. W. Ochterski, 
 R. L. Martin, K. Morokuma, V. G. Zakrzewski, G. A. Voth, 
 P. Salvador, J. J. Dannenberg, S. Dapprich, A. D. Daniels, 
 O. Farkas, J. B. Foresman, J. V. Ortiz, J. Cioslowski, 
 and D. J. Fox, Gaussian, Inc., Wallingford CT, 2009.
 
 ******************************************
 Gaussian 09:  EM64L-G09RevA.01  8-May-2009
                22-Mar-2018 
 ******************************************
 %nprocshared=2
 Will use up to    2 processors via shared memory.
 %mem=1GB
 -------------------------------------------------------------
 #b3lyp/6-31+g* scf=tight nosymm punch=mo iop(3/33=1) pop=full
 -------------------------------------------------------------
 1/38=1/1;
 2/12=2,15=1,17=6,18=5,40=1/2;
 3/5=1,6=6,7=11,11=2,16=1,25=1,30=1,33=1,74=-5/1,2,3;
 4//1;
 5/5=2,32=2,38=5/2;
 6/7=3,28=1/1;
 99/5=1,9=1,10=32/99;
 -------
 9_11_07
 -------
 Symbolic Z-matrix:
 Charge =  0 Multiplicity = 1
 H                     1.24262  -0.80957   4.5326 
 C                    -0.67275   0.        5. 
 H                    -1.24262   0.80957   5.4674 
 C                     0.67275   0.        5. 
 H                    -1.24262  -0.80957   4.5326 
 H                     1.24262   0.80957   5.4674 
 
                          Input orientation:                          
 ---------------------------------------------------------------------
 Center     Atomic      Atomic             Coordinates (Angstroms)
 Number     Number       Type             X           Y           Z
 ---------------------------------------------------------------------
      1          1           0        1.242623   -0.809566    4.532597
      2          6           0       -0.672749    0.000000    5.000000
      3          1           0       -1.242623    0.809566    5.467403
      4          6           0        0.672749    0.000000    5.000000
      5          1           0       -1.242623   -0.809566    4.532597
      6          1           0        1.242623    0.809566    5.467403
 ---------------------------------------------------------------------
                    Distance matrix (angstroms):
                    1          2          3          4          5
     1  H    0.000000
     2  C    2.131317   0.000000
     3  H    3.109968   1.094815   0.000000
     4  C    1.094815   1.345498   2.131317   0.000000
     5  H    2.485246   1.094815   1.869612   2.131317   0.000000
     6  H    1.869612   2.131317   2.485246   1.094815   3.109968
                    6
     6  H    0.000000
 Symmetry turned off by external request.
 Stoichiometry    C2H4
 Framework group  D2H[C2"(C.C),SG(H4)]
 Deg. of freedom     3
 Full point group                 D2H     NOp   8
 Rotational constants (GHZ):    143.4593546     29.5768688     24.5213310
 Standard basis: 6-31+G(d) (6D, 7F)
                         Coordinates in L301:                         
 ---------------------------------------------------------------------
 Center     Atomic      Atomic             Coordinates (Angstroms)
 Number     Number       Type             X           Y           Z
 ---------------------------------------------------------------------
      1          1           0        1.242623   -0.809566    4.532597
      2          6           0       -0.672749    0.000000    5.000000
      3          1           0       -1.242623    0.809566    5.467403
      4          6           0        0.672749    0.000000    5.000000
      5          1           0       -1.242623   -0.809566    4.532597
      6          1           0        1.242623    0.809566    5.467403
 ---------------------------------------------------------------------
 FixB: optimizing general contractions.
 Ernie: Thresh=  0.10000D-02 Tol=  0.10000D-05 Strict=F.
 IA=     1 NL=   2 NS=   1.
 IA=     1 L=0 SC=0 ISt=    0 NBk=    0 NP=    0 IndPr=    0.
 IA=     2 NL=   1 NS=   0.
 IA=     2 L=0 SC=0 ISt=    0 NBk=    0 NP=    0 IndPr=    0.
 IA=     2 NL=   3 NS=   2.
 IA=     2 L=1 SC=0 ISt=    0 NBk=    0 NP=    0 IndPr=    0.
 IA=     2 NL=   1 NS=   1.
 IA=     2 L=2 SC=2 ISt=    0 NBk=    0 NP=    0 IndPr=    0.
 IA=     3 NL=   2 NS=   1.
 IA=     3 L=0 SC=0 ISt=    0 NBk=    0 NP=    0 IndPr=    0.
 IA=     4 NL=   1 NS=   0.
 IA=     4 L=0 SC=0 ISt=    0 NBk=    0 NP=    0 IndPr=    0.
 IA=     4 NL=   3 NS=   2.
 IA=     4 L=1 SC=0 ISt=    0 NBk=    0 NP=    0 IndPr=    0.
 IA=     4 NL=   1 NS=   1.
 IA=     4 L=2 SC=2 ISt=    0 NBk=    0 NP=    0 IndPr=    0.
 IA=     5 NL=   2 NS=   1.
 IA=     5 L=0 SC=0 ISt=    0 NBk=    0 NP=    0 IndPr=    0.
 IA=     6 NL=   2 NS=   1.
 IA=     6 L=0 SC=0 ISt=    0 NBk=    0 NP=    0 IndPr=    0.
 LdAtmC:  AtmChg=     1.000000     6.000000     1.000000     6.000000     1.000000
 LdAtmC:  AtmChg=     1.000000
 AtZEff=     -1.0000000     -3.6000000     -1.0000000     -3.6000000     -1.0000000
 AtZEff=     -1.0000000
 Integral buffers will be    131072 words long.
 Raffenetti 2 integral format.
 Two-electron integral symmetry is turned off.
    46 basis functions,    80 primitive gaussians,    46 cartesian basis functions
     8 alpha electrons        8 beta electrons
       nuclear repulsion energy        33.0501001282 Hartrees.
 NAtoms=    6 NActive=    6 NUniq=    6 SFac= 7.50D-01 NAtFMM=   80 NAOKFM=F Big=F
 NPDir=0 NMtPBC=     1 NCelOv=     1 NCel=       1 NClECP=     1 NCelD=      1
         NCelK=      1 NCelE2=     1 NClLst=     1 CellRange=     0.0.
 One-electron integrals computed using PRISM.
 Entering OneElI...
 Calculate overlap and kinetic energy integrals
    NBasis =  46  MinDer = 0  MaxDer = 0
 Requested accuracy = 0.1000D-12
 PrsmSu:  NPrtUS=   2 ThrOK=T IAlg=1
 PRISM was handed    67093240 working-precision words and   171 shell-pairs
 PRISM was handed    67093240 working-precision words and   171 shell-pairs
 IPart=  0 NShTot=          87 NBatch=          25 AvBLen=         3.5
 IPart=  1 NShTot=          84 NBatch=          24 AvBLen=         3.5
 *** Overlap *** 
                1             2             3             4             5 
      1  0.100000D+01
      2  0.658292D+00  0.100000D+01
      3  0.430532D-04  0.142782D-01  0.100000D+01
      4  0.789566D-02  0.109874D+00  0.219059D+00  0.100000D+01
      5  0.152645D-01  0.102096D+00  0.000000D+00  0.000000D+00  0.100000D+01
      6 -0.645182D-02 -0.431529D-01  0.000000D+00  0.000000D+00  0.000000D+00
      7 -0.372496D-02 -0.249143D-01  0.000000D+00  0.000000D+00  0.000000D+00
      8  0.740737D-01  0.262382D+00  0.184261D+00  0.812273D+00  0.000000D+00
      9  0.176933D+00  0.381297D+00  0.000000D+00  0.000000D+00  0.569754D+00
     10 -0.747841D-01 -0.161162D+00  0.000000D+00  0.000000D+00  0.000000D+00
     11 -0.431766D-01 -0.930469D-01  0.000000D+00  0.000000D+00  0.000000D+00
     12  0.158045D+00  0.424412D+00  0.697718D-01  0.402091D+00  0.000000D+00
     13  0.225200D+00  0.505665D+00  0.000000D+00  0.000000D+00  0.164679D+00
     14 -0.951847D-01 -0.213728D+00  0.000000D+00  0.000000D+00  0.000000D+00
     15 -0.549549D-01 -0.123396D+00  0.000000D+00  0.000000D+00  0.000000D+00
     16  0.137730D-01  0.120267D+00  0.791027D-01  0.710235D+00  0.000000D+00
     17  0.378944D-02  0.792871D-01  0.791027D-01  0.710235D+00  0.000000D+00
     18  0.234179D-02  0.733448D-01  0.791027D-01  0.710235D+00  0.000000D+00
     19 -0.889846D-02 -0.365262D-01  0.000000D+00  0.000000D+00  0.000000D+00
     20 -0.513752D-02 -0.210884D-01  0.000000D+00  0.000000D+00  0.000000D+00
     21  0.217147D-02  0.891338D-02  0.000000D+00  0.000000D+00  0.000000D+00
     22  0.104764D-04  0.720594D-02  0.320525D-01  0.270664D+00 -0.190665D+00
     23  0.720594D-02  0.617177D-01  0.916644D-01  0.473962D+00 -0.138279D+00
     24  0.320525D-01  0.916644D-01  0.481399D-05  0.194904D-01  0.426713D-01
     25  0.270664D+00  0.473962D+00  0.194904D-01  0.203366D+00  0.282219D+00
     26  0.190665D+00  0.138279D+00 -0.426713D-01 -0.282219D+00 -0.333594D+00
     27 -0.270860D+00 -0.196441D+00  0.000000D+00  0.000000D+00  0.000000D+00
     28 -0.156381D+00 -0.113415D+00  0.000000D+00  0.000000D+00  0.000000D+00
     29  0.375116D+00  0.702351D+00  0.643636D-01  0.359351D+00  0.253511D+00
     30  0.267879D+00  0.303675D+00 -0.129620D+00 -0.562375D+00 -0.170740D+00
     31 -0.380550D+00 -0.431402D+00  0.000000D+00  0.000000D+00  0.000000D+00
     32 -0.219711D+00 -0.249070D+00  0.000000D+00  0.000000D+00  0.000000D+00
     33  0.258482D+00  0.640357D+00  0.527094D-01  0.309785D+00  0.673317D-01
     34  0.109596D+00  0.226998D+00 -0.555561D-01 -0.303665D+00  0.598522D-01
     35 -0.155692D+00 -0.322475D+00  0.000000D+00  0.000000D+00  0.000000D+00
     36 -0.898888D-01 -0.186181D+00  0.000000D+00  0.000000D+00  0.000000D+00
     37  0.207129D+00  0.371459D+00  0.526767D-01  0.334402D+00  0.413876D+00
     38  0.299888D+00  0.393793D+00  0.113280D-02  0.928256D-01  0.142160D+00
     39  0.177310D+00  0.364280D+00  0.113280D-02  0.928256D-01  0.142160D+00
     40 -0.224177D+00 -0.539753D-01  0.000000D+00  0.000000D+00  0.000000D+00
     41 -0.129429D+00 -0.311627D-01  0.000000D+00  0.000000D+00  0.000000D+00
     42  0.183867D+00  0.442698D-01  0.000000D+00  0.000000D+00  0.000000D+00
     43  0.571644D-03  0.366357D-01  0.320525D-01  0.270664D+00 -0.190665D+00
     44  0.366357D-01  0.168873D+00  0.916644D-01  0.473962D+00 -0.138279D+00
     45  0.125798D-01  0.128011D+00  0.430532D-04  0.789566D-02  0.152645D-01
     46  0.128011D+00  0.365469D+00  0.142782D-01  0.109874D+00  0.102096D+00
                6             7             8             9            10 
      6  0.100000D+01
      7  0.000000D+00  0.100000D+01
      8  0.000000D+00  0.000000D+00  0.100000D+01
      9  0.000000D+00  0.000000D+00  0.000000D+00  0.100000D+01
     10  0.569754D+00  0.000000D+00  0.000000D+00  0.000000D+00  0.100000D+01
     11  0.000000D+00  0.569754D+00  0.000000D+00  0.000000D+00  0.000000D+00
     12  0.000000D+00  0.000000D+00  0.727666D+00  0.000000D+00  0.000000D+00
     13  0.000000D+00  0.000000D+00  0.000000D+00  0.588690D+00  0.000000D+00
     14  0.164679D+00  0.000000D+00  0.000000D+00  0.000000D+00  0.588690D+00
     15  0.000000D+00  0.164679D+00  0.000000D+00  0.000000D+00  0.000000D+00
     16  0.000000D+00  0.000000D+00  0.629936D+00  0.000000D+00  0.000000D+00
     17  0.000000D+00  0.000000D+00  0.629936D+00  0.000000D+00  0.000000D+00
     18  0.000000D+00  0.000000D+00  0.629936D+00  0.000000D+00  0.000000D+00
     19  0.000000D+00  0.000000D+00  0.000000D+00  0.000000D+00  0.000000D+00
     20  0.000000D+00  0.000000D+00  0.000000D+00  0.000000D+00  0.000000D+00
     21  0.000000D+00  0.000000D+00  0.000000D+00  0.000000D+00  0.000000D+00
     22  0.270860D+00  0.156381D+00  0.375116D+00 -0.267879D+00  0.380550D+00
     23  0.196441D+00  0.113415D+00  0.702351D+00 -0.303675D+00  0.431402D+00
     24  0.000000D+00  0.000000D+00  0.643636D-01  0.129620D+00  0.000000D+00
     25  0.000000D+00  0.000000D+00  0.359351D+00  0.562375D+00  0.000000D+00
     26  0.000000D+00  0.000000D+00 -0.253511D+00 -0.170740D+00  0.000000D+00
     27  0.115814D+00  0.000000D+00  0.000000D+00  0.000000D+00  0.242739D+00
     28  0.000000D+00  0.115814D+00  0.000000D+00  0.000000D+00  0.000000D+00
     29  0.000000D+00  0.000000D+00  0.579631D+00  0.605354D+00  0.000000D+00
     30  0.000000D+00  0.000000D+00 -0.605354D+00 -0.525884D-01  0.000000D+00
     31  0.242739D+00  0.000000D+00  0.000000D+00  0.000000D+00  0.579631D+00
     32  0.000000D+00  0.242739D+00  0.000000D+00  0.000000D+00  0.000000D+00
     33  0.000000D+00  0.000000D+00  0.581168D+00  0.250193D+00  0.000000D+00
     34  0.000000D+00  0.000000D+00 -0.491037D+00  0.258780D+00  0.000000D+00
     35  0.126532D+00  0.000000D+00  0.000000D+00  0.000000D+00  0.470171D+00
     36  0.000000D+00  0.126532D+00  0.000000D+00  0.000000D+00  0.000000D+00
     37  0.000000D+00  0.000000D+00  0.353148D+00  0.422973D+00  0.000000D+00
     38  0.000000D+00  0.000000D+00  0.255918D+00  0.441451D+00  0.000000D+00
     39  0.000000D+00  0.000000D+00  0.255918D+00  0.441451D+00  0.000000D+00
     40 -0.183392D+00  0.000000D+00  0.000000D+00  0.000000D+00 -0.161252D+00
     41  0.000000D+00 -0.183392D+00  0.000000D+00  0.000000D+00  0.000000D+00
     42  0.000000D+00  0.000000D+00  0.000000D+00  0.000000D+00  0.000000D+00
     43 -0.270860D+00 -0.156381D+00  0.375116D+00 -0.267879D+00 -0.380550D+00
     44 -0.196441D+00 -0.113415D+00  0.702351D+00 -0.303675D+00 -0.431402D+00
     45  0.645182D-02  0.372496D-02  0.740737D-01  0.176933D+00  0.747841D-01
     46  0.431529D-01  0.249143D-01  0.262382D+00  0.381297D+00  0.161162D+00
               11            12            13            14            15 
     11  0.100000D+01
     12  0.000000D+00  0.100000D+01
     13  0.000000D+00  0.000000D+00  0.100000D+01
     14  0.000000D+00  0.000000D+00  0.000000D+00  0.100000D+01
     15  0.588690D+00  0.000000D+00  0.000000D+00  0.000000D+00  0.100000D+01
     16  0.000000D+00  0.323540D+00  0.000000D+00  0.000000D+00  0.000000D+00
     17  0.000000D+00  0.323540D+00  0.000000D+00  0.000000D+00  0.000000D+00
     18  0.000000D+00  0.323540D+00  0.000000D+00  0.000000D+00  0.000000D+00
     19  0.000000D+00  0.000000D+00  0.000000D+00  0.000000D+00  0.000000D+00
     20  0.000000D+00  0.000000D+00  0.000000D+00  0.000000D+00  0.000000D+00
     21  0.000000D+00  0.000000D+00  0.000000D+00  0.000000D+00  0.000000D+00
     22  0.219711D+00  0.258482D+00 -0.109596D+00  0.155692D+00  0.898888D-01
     23  0.249070D+00  0.640357D+00 -0.226998D+00  0.322475D+00  0.186181D+00
     24  0.000000D+00  0.527094D-01  0.555561D-01  0.000000D+00  0.000000D+00
     25  0.000000D+00  0.309785D+00  0.303665D+00  0.000000D+00  0.000000D+00
     26  0.000000D+00 -0.673317D-01  0.598522D-01  0.000000D+00  0.000000D+00
     27  0.000000D+00  0.000000D+00  0.000000D+00  0.126532D+00  0.000000D+00
     28  0.242739D+00  0.000000D+00  0.000000D+00  0.000000D+00  0.126532D+00
     29  0.000000D+00  0.581168D+00  0.491037D+00  0.000000D+00  0.000000D+00
     30  0.000000D+00 -0.250193D+00  0.258780D+00  0.000000D+00  0.000000D+00
     31  0.000000D+00  0.000000D+00  0.000000D+00  0.470171D+00  0.000000D+00
     32  0.579631D+00  0.000000D+00  0.000000D+00  0.000000D+00  0.470171D+00
     33  0.000000D+00  0.867984D+00  0.461882D+00  0.000000D+00  0.000000D+00
     34  0.000000D+00 -0.461882D+00  0.622202D+00  0.000000D+00  0.000000D+00
     35  0.000000D+00  0.000000D+00  0.000000D+00  0.867984D+00  0.000000D+00
     36  0.470171D+00  0.000000D+00  0.000000D+00  0.000000D+00  0.867984D+00
     37  0.000000D+00  0.254635D+00  0.229601D+00  0.000000D+00  0.000000D+00
     38  0.000000D+00  0.247363D+00  0.249594D+00  0.000000D+00  0.000000D+00
     39  0.000000D+00  0.247363D+00  0.249594D+00  0.000000D+00  0.000000D+00
     40  0.000000D+00  0.000000D+00  0.000000D+00 -0.236690D-01  0.000000D+00
     41 -0.161252D+00  0.000000D+00  0.000000D+00  0.000000D+00 -0.236690D-01
     42  0.000000D+00  0.000000D+00  0.000000D+00  0.000000D+00  0.000000D+00
     43 -0.219711D+00  0.258482D+00 -0.109596D+00 -0.155692D+00 -0.898888D-01
     44 -0.249070D+00  0.640357D+00 -0.226998D+00 -0.322475D+00 -0.186181D+00
     45  0.431766D-01  0.158045D+00  0.225200D+00  0.951847D-01  0.549549D-01
     46  0.930469D-01  0.424412D+00  0.505665D+00  0.213728D+00  0.123396D+00
               16            17            18            19            20 
     16  0.100000D+01
     17  0.333333D+00  0.100000D+01
     18  0.333333D+00  0.333333D+00  0.100000D+01
     19  0.000000D+00  0.000000D+00  0.000000D+00  0.100000D+01
     20  0.000000D+00  0.000000D+00  0.000000D+00  0.000000D+00  0.100000D+01
     21  0.000000D+00  0.000000D+00  0.000000D+00  0.000000D+00  0.000000D+00
     22  0.207129D+00  0.299888D+00  0.177310D+00 -0.224177D+00 -0.129429D+00
     23  0.371459D+00  0.393793D+00  0.364280D+00 -0.539753D-01 -0.311627D-01
     24  0.526767D-01  0.113280D-02  0.113280D-02  0.000000D+00  0.000000D+00
     25  0.334402D+00  0.928256D-01  0.928256D-01  0.000000D+00  0.000000D+00
     26 -0.413876D+00 -0.142160D+00 -0.142160D+00  0.000000D+00  0.000000D+00
     27  0.000000D+00  0.000000D+00  0.000000D+00  0.183392D+00  0.000000D+00
     28  0.000000D+00  0.000000D+00  0.000000D+00  0.000000D+00  0.183392D+00
     29  0.353148D+00  0.255918D+00  0.255918D+00  0.000000D+00  0.000000D+00
     30 -0.422973D+00 -0.441451D+00 -0.441451D+00  0.000000D+00  0.000000D+00
     31  0.000000D+00  0.000000D+00  0.000000D+00  0.161252D+00  0.000000D+00
     32  0.000000D+00  0.000000D+00  0.000000D+00  0.000000D+00  0.161252D+00
     33  0.254635D+00  0.247363D+00  0.247363D+00  0.000000D+00  0.000000D+00
     34 -0.229601D+00 -0.249594D+00 -0.249594D+00  0.000000D+00  0.000000D+00
     35  0.000000D+00  0.000000D+00  0.000000D+00  0.236690D-01  0.000000D+00
     36  0.000000D+00  0.000000D+00  0.000000D+00  0.000000D+00  0.236690D-01
     37  0.487216D+00  0.154963D+00  0.154963D+00  0.000000D+00  0.000000D+00
     38  0.154963D+00  0.753228D-01  0.251076D-01  0.000000D+00  0.000000D+00
     39  0.154963D+00  0.251076D-01  0.753228D-01  0.000000D+00  0.000000D+00
     40  0.000000D+00  0.000000D+00  0.000000D+00 -0.314243D+00  0.000000D+00
     41  0.000000D+00  0.000000D+00  0.000000D+00  0.000000D+00 -0.314243D+00
     42  0.000000D+00  0.000000D+00  0.000000D+00  0.000000D+00  0.000000D+00
     43  0.207129D+00  0.299888D+00  0.177310D+00  0.224177D+00  0.129429D+00
     44  0.371459D+00  0.393793D+00  0.364280D+00  0.539753D-01  0.311627D-01
     45  0.137730D-01  0.378944D-02  0.234179D-02  0.889846D-02  0.513752D-02
     46  0.120267D+00  0.792871D-01  0.733448D-01  0.365262D-01  0.210884D-01
               21            22            23            24            25 
     21  0.100000D+01
     22  0.183867D+00  0.100000D+01
     23  0.442698D-01  0.658292D+00  0.100000D+01
     24  0.000000D+00  0.430532D-04  0.142782D-01  0.100000D+01
     25  0.000000D+00  0.789566D-02  0.109874D+00  0.219059D+00  0.100000D+01
     26  0.000000D+00 -0.152645D-01 -0.102096D+00  0.000000D+00  0.000000D+00
     27  0.000000D+00  0.645182D-02  0.431529D-01  0.000000D+00  0.000000D+00
     28  0.000000D+00  0.372496D-02  0.249143D-01  0.000000D+00  0.000000D+00
     29  0.000000D+00  0.740737D-01  0.262382D+00  0.184261D+00  0.812273D+00
     30  0.000000D+00 -0.176933D+00 -0.381297D+00  0.000000D+00  0.000000D+00
     31  0.000000D+00  0.747841D-01  0.161162D+00  0.000000D+00  0.000000D+00
     32  0.000000D+00  0.431766D-01  0.930469D-01  0.000000D+00  0.000000D+00
     33  0.000000D+00  0.158045D+00  0.424412D+00  0.697718D-01  0.402091D+00
     34  0.000000D+00 -0.225200D+00 -0.505665D+00  0.000000D+00  0.000000D+00
     35  0.000000D+00  0.951847D-01  0.213728D+00  0.000000D+00  0.000000D+00
     36  0.000000D+00  0.549549D-01  0.123396D+00  0.000000D+00  0.000000D+00
     37  0.000000D+00  0.137730D-01  0.120267D+00  0.791027D-01  0.710235D+00
     38  0.000000D+00  0.378944D-02  0.792871D-01  0.791027D-01  0.710235D+00
     39  0.000000D+00  0.234179D-02  0.733448D-01  0.791027D-01  0.710235D+00
     40  0.000000D+00 -0.889846D-02 -0.365262D-01  0.000000D+00  0.000000D+00
     41  0.000000D+00 -0.513752D-02 -0.210884D-01  0.000000D+00  0.000000D+00
     42  0.753228D-01  0.217147D-02  0.891338D-02  0.000000D+00  0.000000D+00
     43  0.183867D+00  0.125798D-01  0.128011D+00  0.430532D-04  0.789566D-02
     44  0.442698D-01  0.128011D+00  0.365469D+00  0.142782D-01  0.109874D+00
     45  0.217147D-02  0.571644D-03  0.366357D-01  0.320525D-01  0.270664D+00
     46  0.891338D-02  0.366357D-01  0.168873D+00  0.916644D-01  0.473962D+00
               26            27            28            29            30 
     26  0.100000D+01
     27  0.000000D+00  0.100000D+01
     28  0.000000D+00  0.000000D+00  0.100000D+01
     29  0.000000D+00  0.000000D+00  0.000000D+00  0.100000D+01
     30  0.569754D+00  0.000000D+00  0.000000D+00  0.000000D+00  0.100000D+01
     31  0.000000D+00  0.569754D+00  0.000000D+00  0.000000D+00  0.000000D+00
     32  0.000000D+00  0.000000D+00  0.569754D+00  0.000000D+00  0.000000D+00
     33  0.000000D+00  0.000000D+00  0.000000D+00  0.727666D+00  0.000000D+00
     34  0.164679D+00  0.000000D+00  0.000000D+00  0.000000D+00  0.588690D+00
     35  0.000000D+00  0.164679D+00  0.000000D+00  0.000000D+00  0.000000D+00
     36  0.000000D+00  0.000000D+00  0.164679D+00  0.000000D+00  0.000000D+00
     37  0.000000D+00  0.000000D+00  0.000000D+00  0.629936D+00  0.000000D+00
     38  0.000000D+00  0.000000D+00  0.000000D+00  0.629936D+00  0.000000D+00
     39  0.000000D+00  0.000000D+00  0.000000D+00  0.629936D+00  0.000000D+00
     40  0.000000D+00  0.000000D+00  0.000000D+00  0.000000D+00  0.000000D+00
     41  0.000000D+00  0.000000D+00  0.000000D+00  0.000000D+00  0.000000D+00
     42  0.000000D+00  0.000000D+00  0.000000D+00  0.000000D+00  0.000000D+00
     43 -0.152645D-01 -0.645182D-02 -0.372496D-02  0.740737D-01 -0.176933D+00
     44 -0.102096D+00 -0.431529D-01 -0.249143D-01  0.262382D+00 -0.381297D+00
     45  0.190665D+00  0.270860D+00  0.156381D+00  0.375116D+00  0.267879D+00
     46  0.138279D+00  0.196441D+00  0.113415D+00  0.702351D+00  0.303675D+00
               31            32            33            34            35 
     31  0.100000D+01
     32  0.000000D+00  0.100000D+01
     33  0.000000D+00  0.000000D+00  0.100000D+01
     34  0.000000D+00  0.000000D+00  0.000000D+00  0.100000D+01
     35  0.588690D+00  0.000000D+00  0.000000D+00  0.000000D+00  0.100000D+01
     36  0.000000D+00  0.588690D+00  0.000000D+00  0.000000D+00  0.000000D+00
     37  0.000000D+00  0.000000D+00  0.323540D+00  0.000000D+00  0.000000D+00
     38  0.000000D+00  0.000000D+00  0.323540D+00  0.000000D+00  0.000000D+00
     39  0.000000D+00  0.000000D+00  0.323540D+00  0.000000D+00  0.000000D+00
     40  0.000000D+00  0.000000D+00  0.000000D+00  0.000000D+00  0.000000D+00
     41  0.000000D+00  0.000000D+00  0.000000D+00  0.000000D+00  0.000000D+00
     42  0.000000D+00  0.000000D+00  0.000000D+00  0.000000D+00  0.000000D+00
     43 -0.747841D-01 -0.431766D-01  0.158045D+00 -0.225200D+00 -0.951847D-01
     44 -0.161162D+00 -0.930469D-01  0.424412D+00 -0.505665D+00 -0.213728D+00
     45  0.380550D+00  0.219711D+00  0.258482D+00  0.109596D+00  0.155692D+00
     46  0.431402D+00  0.249070D+00  0.640357D+00  0.226998D+00  0.322475D+00
               36            37            38            39            40 
     36  0.100000D+01
     37  0.000000D+00  0.100000D+01
     38  0.000000D+00  0.333333D+00  0.100000D+01
     39  0.000000D+00  0.333333D+00  0.333333D+00  0.100000D+01
     40  0.000000D+00  0.000000D+00  0.000000D+00  0.000000D+00  0.100000D+01
     41  0.000000D+00  0.000000D+00  0.000000D+00  0.000000D+00  0.000000D+00
     42  0.000000D+00  0.000000D+00  0.000000D+00  0.000000D+00  0.000000D+00
     43 -0.549549D-01  0.137730D-01  0.378944D-02  0.234179D-02  0.889846D-02
     44 -0.123396D+00  0.120267D+00  0.792871D-01  0.733448D-01  0.365262D-01
     45  0.898888D-01  0.207129D+00  0.299888D+00  0.177310D+00  0.224177D+00
     46  0.186181D+00  0.371459D+00  0.393793D+00  0.364280D+00  0.539753D-01
               41            42            43            44            45 
     41  0.100000D+01
     42  0.000000D+00  0.100000D+01
     43  0.513752D-02  0.217147D-02  0.100000D+01
     44  0.210884D-01  0.891338D-02  0.658292D+00  0.100000D+01
     45  0.129429D+00  0.183867D+00  0.104764D-04  0.720594D-02  0.100000D+01
     46  0.311627D-01  0.442698D-01  0.720594D-02  0.617177D-01  0.658292D+00
               46 
     46  0.100000D+01
 *** Kinetic Energy *** 
                1             2             3             4             5 
      1  0.139568D+01
      2  0.259735D+00  0.241917D+00
      3 -0.349040D-03 -0.456069D-02  0.162076D+02
      4 -0.153574D-01 -0.130735D-01 -0.124757D+01  0.932246D+00
      5 -0.222209D-01  0.113744D-01  0.000000D+00  0.000000D+00  0.217833D+01
      6  0.939207D-02 -0.480759D-02  0.000000D+00  0.000000D+00  0.000000D+00
      7  0.542251D-02 -0.277566D-02  0.000000D+00  0.000000D+00  0.000000D+00
      8 -0.141416D-01  0.702830D-02  0.899505D-01  0.306718D+00  0.000000D+00
      9  0.138972D-01  0.730942D-01  0.000000D+00  0.000000D+00  0.376673D+00
     10 -0.587391D-02 -0.308946D-01  0.000000D+00  0.000000D+00  0.000000D+00
     11 -0.339130D-02 -0.178370D-01  0.000000D+00  0.000000D+00  0.000000D+00
     12  0.108285D-01  0.275201D-01  0.907972D-02  0.486595D-01  0.000000D+00
     13  0.339886D-01  0.676243D-01  0.000000D+00  0.000000D+00  0.335613D-01
     14 -0.143659D-01 -0.285826D-01  0.000000D+00  0.000000D+00  0.000000D+00
     15 -0.829414D-02 -0.165022D-01  0.000000D+00  0.000000D+00  0.000000D+00
     16 -0.261710D-01  0.111356D-02 -0.524817D+00  0.520042D+00  0.000000D+00
     17 -0.948306D-02 -0.134375D-01 -0.524817D+00  0.520042D+00  0.000000D+00
     18 -0.706325D-02 -0.155475D-01 -0.524817D+00  0.520042D+00  0.000000D+00
     19  0.148742D-01 -0.129696D-01  0.000000D+00  0.000000D+00  0.000000D+00
     20  0.858763D-02 -0.748798D-02  0.000000D+00  0.000000D+00  0.000000D+00
     21 -0.362971D-02  0.316493D-02  0.000000D+00  0.000000D+00  0.000000D+00
     22 -0.641177D-04 -0.562451D-02 -0.348075D-01  0.397959D-01 -0.121108D+00
     23 -0.562451D-02 -0.127923D-01  0.237890D-01  0.113380D+00 -0.687448D-01
     24 -0.348075D-01  0.237890D-01 -0.135413D-03 -0.305582D-01 -0.301757D-01
     25  0.397959D-01  0.113380D+00 -0.305582D-01 -0.692999D-02  0.114122D+00
     26  0.121108D+00  0.687448D-01  0.301757D-01 -0.114122D+00 -0.341734D+00
     27 -0.172047D+00 -0.976593D-01  0.000000D+00  0.000000D+00  0.000000D+00
     28 -0.993314D-01 -0.563836D-01  0.000000D+00  0.000000D+00  0.000000D+00
     29  0.934992D-01  0.132860D+00  0.938145D-02  0.623760D-01  0.109871D+00
     30  0.140040D+00  0.107524D+00 -0.610677D-01 -0.239367D+00 -0.183669D+00
     31 -0.198941D+00 -0.152749D+00  0.000000D+00  0.000000D+00  0.000000D+00
     32 -0.114859D+00 -0.881899D-01  0.000000D+00  0.000000D+00  0.000000D+00
     33  0.281911D-01  0.596677D-01  0.557685D-02  0.309754D-01  0.122746D-01
     34  0.209881D-01  0.367895D-01 -0.106981D-01 -0.548491D-01  0.547132D-02
     35 -0.298158D-01 -0.522634D-01  0.000000D+00  0.000000D+00  0.000000D+00
     36 -0.172141D-01 -0.301743D-01  0.000000D+00  0.000000D+00  0.000000D+00
     37  0.366389D-01  0.851469D-01 -0.759879D-01  0.185459D+00  0.484409D+00
     38  0.160417D+00  0.102686D+00 -0.120047D-01 -0.702841D-01 -0.455959D-01
     39 -0.315206D-02  0.795087D-01 -0.120047D-01 -0.702841D-01 -0.455959D-01
     40 -0.299144D+00 -0.423877D-01  0.000000D+00  0.000000D+00  0.000000D+00
     41 -0.172711D+00 -0.244726D-01  0.000000D+00  0.000000D+00  0.000000D+00
     42  0.245354D+00  0.347658D-01  0.000000D+00  0.000000D+00  0.000000D+00
     43 -0.205251D-02 -0.132355D-01 -0.348075D-01  0.397959D-01 -0.121108D+00
     44 -0.132355D-01 -0.758808D-02  0.237890D-01  0.113380D+00 -0.687448D-01
     45 -0.215317D-01 -0.462460D-02 -0.349040D-03 -0.153574D-01 -0.222209D-01
     46 -0.462460D-02  0.290836D-01 -0.456069D-02 -0.130735D-01  0.113744D-01
                6             7             8             9            10 
      6  0.217833D+01
      7  0.000000D+00  0.217833D+01
      8  0.000000D+00  0.000000D+00  0.253072D+00
      9  0.000000D+00  0.000000D+00  0.000000D+00  0.421786D+00
     10  0.376673D+00  0.000000D+00  0.000000D+00  0.000000D+00  0.421786D+00
     11  0.000000D+00  0.376673D+00  0.000000D+00  0.000000D+00  0.000000D+00
     12  0.000000D+00  0.000000D+00  0.759086D-01  0.000000D+00  0.000000D+00
     13  0.000000D+00  0.000000D+00  0.000000D+00  0.102352D+00  0.000000D+00
     14  0.335613D-01  0.000000D+00  0.000000D+00  0.000000D+00  0.102352D+00
     15  0.000000D+00  0.335613D-01  0.000000D+00  0.000000D+00  0.000000D+00
     16  0.000000D+00  0.000000D+00  0.226288D+00  0.000000D+00  0.000000D+00
     17  0.000000D+00  0.000000D+00  0.226288D+00  0.000000D+00  0.000000D+00
     18  0.000000D+00  0.000000D+00  0.226288D+00  0.000000D+00  0.000000D+00
     19  0.000000D+00  0.000000D+00  0.000000D+00  0.000000D+00  0.000000D+00
     20  0.000000D+00  0.000000D+00  0.000000D+00  0.000000D+00  0.000000D+00
     21  0.000000D+00  0.000000D+00  0.000000D+00  0.000000D+00  0.000000D+00
     22  0.172047D+00  0.993314D-01  0.934992D-01 -0.140040D+00  0.198941D+00
     23  0.976593D-01  0.563836D-01  0.132860D+00 -0.107524D+00  0.152749D+00
     24  0.000000D+00  0.000000D+00  0.938145D-02  0.610677D-01  0.000000D+00
     25  0.000000D+00  0.000000D+00  0.623760D-01  0.239367D+00  0.000000D+00
     26  0.000000D+00  0.000000D+00 -0.109871D+00 -0.183669D+00  0.000000D+00
     27  0.325781D-01  0.000000D+00  0.000000D+00  0.000000D+00  0.105202D+00
     28  0.000000D+00  0.325781D-01  0.000000D+00  0.000000D+00  0.000000D+00
     29  0.000000D+00  0.000000D+00  0.933559D-01  0.199631D+00  0.000000D+00
     30  0.000000D+00  0.000000D+00 -0.199631D+00 -0.124007D+00  0.000000D+00
     31  0.105202D+00  0.000000D+00  0.000000D+00  0.000000D+00  0.191148D+00
     32  0.000000D+00  0.105202D+00  0.000000D+00  0.000000D+00  0.000000D+00
     33  0.000000D+00  0.000000D+00  0.515403D-01  0.395879D-01  0.000000D+00
     34  0.000000D+00  0.000000D+00 -0.776965D-01  0.262452D-01  0.000000D+00
     35  0.230668D-01  0.000000D+00  0.000000D+00  0.000000D+00  0.743949D-01
     36  0.000000D+00  0.230668D-01  0.000000D+00  0.000000D+00  0.000000D+00
     37  0.000000D+00  0.000000D+00  0.981193D-01  0.204141D+00  0.000000D+00
     38  0.000000D+00  0.000000D+00  0.276945D-01  0.170788D+00  0.000000D+00
     39  0.000000D+00  0.000000D+00  0.276945D-01  0.170788D+00  0.000000D+00
     40 -0.142615D+00  0.000000D+00  0.000000D+00  0.000000D+00 -0.116796D+00
     41  0.000000D+00 -0.142615D+00  0.000000D+00  0.000000D+00  0.000000D+00
     42  0.000000D+00  0.000000D+00  0.000000D+00  0.000000D+00  0.000000D+00
     43 -0.172047D+00 -0.993314D-01  0.934992D-01 -0.140040D+00 -0.198941D+00
     44 -0.976593D-01 -0.563836D-01  0.132860D+00 -0.107524D+00 -0.152749D+00
     45 -0.939207D-02 -0.542251D-02 -0.141416D-01  0.138972D-01  0.587391D-02
     46  0.480759D-02  0.277566D-02  0.702830D-02  0.730942D-01  0.308946D-01
               11            12            13            14            15 
     11  0.421786D+00
     12  0.000000D+00  0.657000D-01
     13  0.000000D+00  0.000000D+00  0.109500D+00
     14  0.000000D+00  0.000000D+00  0.000000D+00  0.109500D+00
     15  0.102352D+00  0.000000D+00  0.000000D+00  0.000000D+00  0.109500D+00
     16  0.000000D+00  0.388353D-01  0.000000D+00  0.000000D+00  0.000000D+00
     17  0.000000D+00  0.388353D-01  0.000000D+00  0.000000D+00  0.000000D+00
     18  0.000000D+00  0.388353D-01  0.000000D+00  0.000000D+00  0.000000D+00
     19  0.000000D+00  0.000000D+00  0.000000D+00  0.000000D+00  0.000000D+00
     20  0.000000D+00  0.000000D+00  0.000000D+00  0.000000D+00  0.000000D+00
     21  0.000000D+00  0.000000D+00  0.000000D+00  0.000000D+00  0.000000D+00
     22  0.114859D+00  0.281911D-01 -0.209881D-01  0.298158D-01  0.172141D-01
     23  0.881899D-01  0.596677D-01 -0.367895D-01  0.522634D-01  0.301743D-01
     24  0.000000D+00  0.557685D-02  0.106981D-01  0.000000D+00  0.000000D+00
     25  0.000000D+00  0.309754D-01  0.548491D-01  0.000000D+00  0.000000D+00
     26  0.000000D+00 -0.122746D-01  0.547132D-02  0.000000D+00  0.000000D+00
     27  0.000000D+00  0.000000D+00  0.000000D+00  0.230668D-01  0.000000D+00
     28  0.105202D+00  0.000000D+00  0.000000D+00  0.000000D+00  0.230668D-01
     29  0.000000D+00  0.515403D-01  0.776965D-01  0.000000D+00  0.000000D+00
     30  0.000000D+00 -0.395879D-01  0.262452D-01  0.000000D+00  0.000000D+00
     31  0.000000D+00  0.000000D+00  0.000000D+00  0.743949D-01  0.000000D+00
     32  0.191148D+00  0.000000D+00  0.000000D+00  0.000000D+00  0.743949D-01
     33  0.000000D+00  0.516439D-01  0.477118D-01  0.000000D+00  0.000000D+00
     34  0.000000D+00 -0.477118D-01  0.535074D-01  0.000000D+00  0.000000D+00
     35  0.000000D+00  0.000000D+00  0.000000D+00  0.896616D-01  0.000000D+00
     36  0.743949D-01  0.000000D+00  0.000000D+00  0.000000D+00  0.896616D-01
     37  0.000000D+00  0.261278D-01  0.403672D-01  0.000000D+00  0.000000D+00
     38  0.000000D+00  0.241761D-01  0.451237D-01  0.000000D+00  0.000000D+00
     39  0.000000D+00  0.241761D-01  0.451237D-01  0.000000D+00  0.000000D+00
     40  0.000000D+00  0.000000D+00  0.000000D+00 -0.635248D-02  0.000000D+00
     41 -0.116796D+00  0.000000D+00  0.000000D+00  0.000000D+00 -0.635248D-02
     42  0.000000D+00  0.000000D+00  0.000000D+00  0.000000D+00  0.000000D+00
     43 -0.114859D+00  0.281911D-01 -0.209881D-01 -0.298158D-01 -0.172141D-01
     44 -0.881899D-01  0.596677D-01 -0.367895D-01 -0.522634D-01 -0.301743D-01
     45  0.339130D-02  0.108285D-01  0.339886D-01  0.143659D-01  0.829414D-02
     46  0.178370D-01  0.275201D-01  0.676243D-01  0.285826D-01  0.165022D-01
               16            17            18            19            20 
     16  0.173333D+01
     17 -0.133333D+00  0.173333D+01
     18 -0.133333D+00 -0.133333D+00  0.173333D+01
     19  0.000000D+00  0.000000D+00  0.000000D+00  0.280000D+01
     20  0.000000D+00  0.000000D+00  0.000000D+00  0.000000D+00  0.280000D+01
     21  0.000000D+00  0.000000D+00  0.000000D+00  0.000000D+00  0.000000D+00
     22  0.366389D-01  0.160417D+00 -0.315206D-02 -0.299144D+00 -0.172711D+00
     23  0.851469D-01  0.102686D+00  0.795087D-01 -0.423877D-01 -0.244726D-01
     24 -0.759879D-01 -0.120047D-01 -0.120047D-01  0.000000D+00  0.000000D+00
     25  0.185459D+00 -0.702841D-01 -0.702841D-01  0.000000D+00  0.000000D+00
     26 -0.484409D+00  0.455959D-01  0.455959D-01  0.000000D+00  0.000000D+00
     27  0.000000D+00  0.000000D+00  0.000000D+00  0.142615D+00  0.000000D+00
     28  0.000000D+00  0.000000D+00  0.000000D+00  0.000000D+00  0.142615D+00
     29  0.981193D-01  0.276945D-01  0.276945D-01  0.000000D+00  0.000000D+00
     30 -0.204141D+00 -0.170788D+00 -0.170788D+00  0.000000D+00  0.000000D+00
     31  0.000000D+00  0.000000D+00  0.000000D+00  0.116796D+00  0.000000D+00
     32  0.000000D+00  0.000000D+00  0.000000D+00  0.000000D+00  0.116796D+00
     33  0.261278D-01  0.241761D-01  0.241761D-01  0.000000D+00  0.000000D+00
     34 -0.403672D-01 -0.451237D-01 -0.451237D-01  0.000000D+00  0.000000D+00
     35  0.000000D+00  0.000000D+00  0.000000D+00  0.635248D-02  0.000000D+00
     36  0.000000D+00  0.000000D+00  0.000000D+00  0.000000D+00  0.635248D-02
     37  0.727180D+00 -0.709162D-01 -0.709162D-01  0.000000D+00  0.000000D+00
     38 -0.709162D-01 -0.252666D-01 -0.619851D-01  0.000000D+00  0.000000D+00
     39 -0.709162D-01 -0.619851D-01 -0.252666D-01  0.000000D+00  0.000000D+00
     40  0.000000D+00  0.000000D+00  0.000000D+00 -0.541434D+00  0.000000D+00
     41  0.000000D+00  0.000000D+00  0.000000D+00  0.000000D+00 -0.541434D+00
     42  0.000000D+00  0.000000D+00  0.000000D+00  0.000000D+00  0.000000D+00
     43  0.366389D-01  0.160417D+00 -0.315206D-02  0.299144D+00  0.172711D+00
     44  0.851469D-01  0.102686D+00  0.795087D-01  0.423877D-01  0.244726D-01
     45 -0.261710D-01 -0.948306D-02 -0.706325D-02 -0.148742D-01 -0.858763D-02
     46  0.111356D-02 -0.134375D-01 -0.155475D-01  0.129696D-01  0.748798D-02
               21            22            23            24            25 
     21  0.280000D+01
     22  0.245354D+00  0.139568D+01
     23  0.347658D-01  0.259735D+00  0.241917D+00
     24  0.000000D+00 -0.349040D-03 -0.456069D-02  0.162076D+02
     25  0.000000D+00 -0.153574D-01 -0.130735D-01 -0.124757D+01  0.932246D+00
     26  0.000000D+00  0.222209D-01 -0.113744D-01  0.000000D+00  0.000000D+00
     27  0.000000D+00 -0.939207D-02  0.480759D-02  0.000000D+00  0.000000D+00
     28  0.000000D+00 -0.542251D-02  0.277566D-02  0.000000D+00  0.000000D+00
     29  0.000000D+00 -0.141416D-01  0.702830D-02  0.899505D-01  0.306718D+00
     30  0.000000D+00 -0.138972D-01 -0.730942D-01  0.000000D+00  0.000000D+00
     31  0.000000D+00  0.587391D-02  0.308946D-01  0.000000D+00  0.000000D+00
     32  0.000000D+00  0.339130D-02  0.178370D-01  0.000000D+00  0.000000D+00
     33  0.000000D+00  0.108285D-01  0.275201D-01  0.907972D-02  0.486595D-01
     34  0.000000D+00 -0.339886D-01 -0.676243D-01  0.000000D+00  0.000000D+00
     35  0.000000D+00  0.143659D-01  0.285826D-01  0.000000D+00  0.000000D+00
     36  0.000000D+00  0.829414D-02  0.165022D-01  0.000000D+00  0.000000D+00
     37  0.000000D+00 -0.261710D-01  0.111356D-02 -0.524817D+00  0.520042D+00
     38  0.000000D+00 -0.948306D-02 -0.134375D-01 -0.524817D+00  0.520042D+00
     39  0.000000D+00 -0.706325D-02 -0.155475D-01 -0.524817D+00  0.520042D+00
     40  0.000000D+00  0.148742D-01 -0.129696D-01  0.000000D+00  0.000000D+00
     41  0.000000D+00  0.858763D-02 -0.748798D-02  0.000000D+00  0.000000D+00
     42  0.550777D-01 -0.362971D-02  0.316493D-02  0.000000D+00  0.000000D+00
     43  0.245354D+00 -0.215317D-01 -0.462460D-02 -0.349040D-03 -0.153574D-01
     44  0.347658D-01 -0.462460D-02  0.290836D-01 -0.456069D-02 -0.130735D-01
     45 -0.362971D-02 -0.205251D-02 -0.132355D-01 -0.348075D-01  0.397959D-01
     46  0.316493D-02 -0.132355D-01 -0.758808D-02  0.237890D-01  0.113380D+00
               26            27            28            29            30 
     26  0.217833D+01
     27  0.000000D+00  0.217833D+01
     28  0.000000D+00  0.000000D+00  0.217833D+01
     29  0.000000D+00  0.000000D+00  0.000000D+00  0.253072D+00
     30  0.376673D+00  0.000000D+00  0.000000D+00  0.000000D+00  0.421786D+00
     31  0.000000D+00  0.376673D+00  0.000000D+00  0.000000D+00  0.000000D+00
     32  0.000000D+00  0.000000D+00  0.376673D+00  0.000000D+00  0.000000D+00
     33  0.000000D+00  0.000000D+00  0.000000D+00  0.759086D-01  0.000000D+00
     34  0.335613D-01  0.000000D+00  0.000000D+00  0.000000D+00  0.102352D+00
     35  0.000000D+00  0.335613D-01  0.000000D+00  0.000000D+00  0.000000D+00
     36  0.000000D+00  0.000000D+00  0.335613D-01  0.000000D+00  0.000000D+00
     37  0.000000D+00  0.000000D+00  0.000000D+00  0.226288D+00  0.000000D+00
     38  0.000000D+00  0.000000D+00  0.000000D+00  0.226288D+00  0.000000D+00
     39  0.000000D+00  0.000000D+00  0.000000D+00  0.226288D+00  0.000000D+00
     40  0.000000D+00  0.000000D+00  0.000000D+00  0.000000D+00  0.000000D+00
     41  0.000000D+00  0.000000D+00  0.000000D+00  0.000000D+00  0.000000D+00
     42  0.000000D+00  0.000000D+00  0.000000D+00  0.000000D+00  0.000000D+00
     43  0.222209D-01  0.939207D-02  0.542251D-02 -0.141416D-01 -0.138972D-01
     44 -0.113744D-01 -0.480759D-02 -0.277566D-02  0.702830D-02 -0.730942D-01
     45  0.121108D+00  0.172047D+00  0.993314D-01  0.934992D-01  0.140040D+00
     46  0.687448D-01  0.976593D-01  0.563836D-01  0.132860D+00  0.107524D+00
               31            32            33            34            35 
     31  0.421786D+00
     32  0.000000D+00  0.421786D+00
     33  0.000000D+00  0.000000D+00  0.657000D-01
     34  0.000000D+00  0.000000D+00  0.000000D+00  0.109500D+00
     35  0.102352D+00  0.000000D+00  0.000000D+00  0.000000D+00  0.109500D+00
     36  0.000000D+00  0.102352D+00  0.000000D+00  0.000000D+00  0.000000D+00
     37  0.000000D+00  0.000000D+00  0.388353D-01  0.000000D+00  0.000000D+00
     38  0.000000D+00  0.000000D+00  0.388353D-01  0.000000D+00  0.000000D+00
     39  0.000000D+00  0.000000D+00  0.388353D-01  0.000000D+00  0.000000D+00
     40  0.000000D+00  0.000000D+00  0.000000D+00  0.000000D+00  0.000000D+00
     41  0.000000D+00  0.000000D+00  0.000000D+00  0.000000D+00  0.000000D+00
     42  0.000000D+00  0.000000D+00  0.000000D+00  0.000000D+00  0.000000D+00
     43 -0.587391D-02 -0.339130D-02  0.108285D-01 -0.339886D-01 -0.143659D-01
     44 -0.308946D-01 -0.178370D-01  0.275201D-01 -0.676243D-01 -0.285826D-01
     45  0.198941D+00  0.114859D+00  0.281911D-01  0.209881D-01  0.298158D-01
     46  0.152749D+00  0.881899D-01  0.596677D-01  0.367895D-01  0.522634D-01
               36            37            38            39            40 
     36  0.109500D+00
     37  0.000000D+00  0.173333D+01
     38  0.000000D+00 -0.133333D+00  0.173333D+01
     39  0.000000D+00 -0.133333D+00 -0.133333D+00  0.173333D+01
     40  0.000000D+00  0.000000D+00  0.000000D+00  0.000000D+00  0.280000D+01
     41  0.000000D+00  0.000000D+00  0.000000D+00  0.000000D+00  0.000000D+00
     42  0.000000D+00  0.000000D+00  0.000000D+00  0.000000D+00  0.000000D+00
     43 -0.829414D-02 -0.261710D-01 -0.948306D-02 -0.706325D-02 -0.148742D-01
     44 -0.165022D-01  0.111356D-02 -0.134375D-01 -0.155475D-01  0.129696D-01
     45  0.172141D-01  0.366389D-01  0.160417D+00 -0.315206D-02  0.299144D+00
     46  0.301743D-01  0.851469D-01  0.102686D+00  0.795087D-01  0.423877D-01
               41            42            43            44            45 
     41  0.280000D+01
     42  0.000000D+00  0.280000D+01
     43 -0.858763D-02 -0.362971D-02  0.139568D+01
     44  0.748798D-02  0.316493D-02  0.259735D+00  0.241917D+00
     45  0.172711D+00  0.245354D+00 -0.641177D-04 -0.562451D-02  0.139568D+01
     46  0.244726D-01  0.347658D-01 -0.562451D-02 -0.127923D-01  0.259735D+00
               46 
     46  0.241917D+00
 Entering OneElI...
 Calculate potential energy integrals
    NBasis =  46  MinDer = 0  MaxDer = 0
 Requested accuracy = 0.1000D-12
 PrsmSu:  NPrtUS=   2 ThrOK=T IAlg=1
 PRISM was handed    67094180 working-precision words and   171 shell-pairs
 PRISM was handed    67094180 working-precision words and   171 shell-pairs
 IPart=  1 NShTot=         504 NBatch=          84 AvBLen=         6.0
 IPart=  0 NShTot=         522 NBatch=          87 AvBLen=         6.0
 ***** Potential Energy ***** 
                1             2             3             4             5 
      1  0.670738D+01
      2  0.405566D+01  0.541359D+01
      3  0.655154D-03  0.297634D+00  0.379758D+02
      4  0.713885D-01  0.991750D+00  0.325034D+01  0.954109D+01
      5  0.140069D+00  0.963411D+00  0.754548D-01  0.547415D+00  0.103022D+02
      6 -0.501603D-01 -0.333167D+00  0.000000D+00  0.000000D+00  0.000000D+00
      7 -0.289600D-01 -0.192354D+00  0.000000D+00  0.000000D+00  0.000000D+00
      8  0.547347D+00  0.195008D+01  0.395732D+01  0.722449D+01  0.552654D+00
      9  0.128160D+01  0.276772D+01  0.126760D-01  0.400277D+00  0.477705D+01
     10 -0.488899D+00 -0.925974D+00  0.000000D+00  0.000000D+00  0.000000D+00
     11 -0.282266D+00 -0.534611D+00  0.000000D+00  0.000000D+00  0.000000D+00
     12  0.101390D+01  0.243420D+01  0.147551D+01  0.340376D+01  0.309548D+00
     13  0.140106D+01  0.267289D+01  0.255468D-02  0.119276D+00  0.131075D+01
     14 -0.553065D+00 -0.955996D+00  0.000000D+00  0.000000D+00  0.000000D+00
     15 -0.319312D+00 -0.551944D+00  0.000000D+00  0.000000D+00  0.000000D+00
     16  0.135129D+00  0.114867D+01  0.113282D+01  0.647992D+01  0.898759D+00
     17  0.294975D-01  0.634943D+00  0.112456D+01  0.621245D+01  0.181380D+00
     18  0.186225D-01  0.587955D+00  0.112238D+01  0.614508D+01  0.210964D+00
     19 -0.735490D-01 -0.294966D+00  0.000000D+00  0.000000D+00  0.000000D+00
     20 -0.424635D-01 -0.170299D+00  0.000000D+00  0.000000D+00  0.000000D+00
     21  0.163124D-01  0.704821D-01  0.327146D-02  0.101055D+00 -0.443756D-01
     22  0.108997D-03  0.592825D-01  0.638255D+00  0.217119D+01 -0.142181D+01
     23  0.592825D-01  0.486071D+00  0.194661D+01  0.400503D+01 -0.800304D+00
     24  0.638255D+00  0.194661D+01  0.522031D-04  0.386654D+00  0.877428D+00
     25  0.217119D+01  0.400503D+01  0.386654D+00  0.199166D+01  0.281338D+01
     26  0.142181D+01  0.800304D+00 -0.877428D+00 -0.281338D+01 -0.340456D+01
     27 -0.209723D+01 -0.148951D+01  0.000000D+00  0.000000D+00  0.000000D+00
     28 -0.121084D+01 -0.859971D+00  0.000000D+00  0.000000D+00  0.000000D+00
     29  0.258654D+01  0.472949D+01  0.136689D+01  0.330447D+01  0.247836D+01
     30  0.162733D+01  0.126362D+01 -0.278636D+01 -0.511865D+01 -0.180210D+01
     31 -0.238854D+01 -0.232268D+01  0.000000D+00  0.000000D+00  0.000000D+00
     32 -0.137902D+01 -0.134100D+01  0.000000D+00  0.000000D+00  0.000000D+00
     33  0.161802D+01  0.346403D+01  0.111456D+01  0.266567D+01  0.785103D+00
     34  0.606426D+00  0.790796D+00 -0.117714D+01 -0.254173D+01  0.270952D+00
     35 -0.888628D+00 -0.138508D+01  0.000000D+00  0.000000D+00  0.000000D+00
     36 -0.513050D+00 -0.799674D+00  0.000000D+00  0.000000D+00  0.000000D+00
     37  0.155326D+01  0.296063D+01  0.104713D+01  0.335754D+01  0.421660D+01
     38  0.228996D+01  0.307834D+01  0.142371D-01  0.813890D+00  0.126422D+01
     39  0.135699D+01  0.282205D+01  0.142184D-01  0.810748D+00  0.125900D+01
     40 -0.164125D+01 -0.330391D+00  0.000000D+00  0.000000D+00  0.000000D+00
     41 -0.947577D+00 -0.190751D+00  0.000000D+00  0.000000D+00  0.000000D+00
     42  0.139945D+01  0.384440D+00  0.280517D-04  0.471282D-02  0.782188D-02
     43  0.390719D-02  0.247619D+00  0.638255D+00  0.217119D+01 -0.142181D+01
     44  0.247619D+00  0.107106D+01  0.194661D+01  0.400503D+01 -0.800304D+00
     45  0.103927D+00  0.897561D+00  0.655154D-03  0.713885D-01  0.140069D+00
     46  0.897561D+00  0.234661D+01  0.297634D+00  0.991750D+00  0.963411D+00
                6             7             8             9            10 
      6  0.998008D+01
      7  0.682485D-01  0.990128D+01
      8  0.000000D+00  0.000000D+00  0.758242D+01
      9  0.000000D+00  0.000000D+00  0.834042D+00  0.660462D+01
     10  0.444222D+01  0.588587D-01  0.000000D+00  0.000000D+00  0.578357D+01
     11  0.588587D-01  0.437425D+01  0.000000D+00  0.000000D+00  0.100388D+00
     12  0.000000D+00  0.000000D+00  0.475783D+01  0.752131D+00  0.000000D+00
     13  0.000000D+00  0.000000D+00  0.383225D+00  0.329621D+01  0.000000D+00
     14  0.119944D+01  0.177648D-01  0.000000D+00  0.000000D+00  0.286770D+01
     15  0.177648D-01  0.117893D+01  0.000000D+00  0.000000D+00  0.456365D-01
     16  0.000000D+00  0.000000D+00  0.542661D+01  0.781273D+00  0.000000D+00
     17  0.000000D+00  0.000000D+00  0.511303D+01  0.130925D+00  0.000000D+00
     18  0.000000D+00  0.000000D+00  0.504117D+01  0.159229D+00  0.000000D+00
     19  0.314160D+00 -0.443756D-01  0.000000D+00  0.000000D+00  0.226768D+00
     20 -0.443756D-01  0.365400D+00  0.000000D+00  0.000000D+00 -0.424569D-01
     21  0.000000D+00  0.000000D+00  0.107802D+00 -0.424569D-01  0.000000D+00
     22  0.209723D+01  0.121084D+01  0.258654D+01 -0.162733D+01  0.238854D+01
     23  0.148951D+01  0.859971D+00  0.472949D+01 -0.126362D+01  0.232268D+01
     24  0.000000D+00  0.000000D+00  0.136689D+01  0.278636D+01  0.000000D+00
     25  0.000000D+00  0.000000D+00  0.330447D+01  0.511865D+01  0.000000D+00
     26  0.000000D+00  0.000000D+00 -0.247836D+01 -0.180210D+01  0.000000D+00
     27  0.101540D+01  0.370273D-02  0.000000D+00  0.000000D+00  0.191123D+01
     28  0.370273D-02  0.101112D+01  0.000000D+00  0.000000D+00  0.158251D-01
     29  0.000000D+00  0.000000D+00  0.462658D+01  0.483190D+01  0.000000D+00
     30  0.000000D+00  0.000000D+00 -0.483190D+01 -0.791981D+00  0.000000D+00
     31  0.191123D+01  0.158251D-01  0.000000D+00  0.000000D+00  0.347498D+01
     32  0.158251D-01  0.189296D+01  0.000000D+00  0.000000D+00  0.430104D-01
     33  0.000000D+00  0.000000D+00  0.393010D+01  0.204894D+01  0.000000D+00
     34  0.000000D+00  0.000000D+00 -0.313869D+01  0.105859D+01  0.000000D+00
     35  0.929450D+00  0.120901D-01  0.000000D+00  0.000000D+00  0.234309D+01
     36  0.120901D-01  0.915490D+00  0.000000D+00  0.000000D+00  0.343952D-01
     37  0.000000D+00  0.000000D+00  0.336089D+01  0.384177D+01  0.000000D+00
     38  0.000000D+00  0.000000D+00  0.210397D+01  0.362643D+01  0.000000D+00
     39  0.000000D+00  0.000000D+00  0.208513D+01  0.358598D+01  0.000000D+00
     40 -0.163713D+01 -0.433078D-02  0.000000D+00  0.000000D+00 -0.133064D+01
     41 -0.433078D-02 -0.163213D+01  0.000000D+00  0.000000D+00  0.167271D-02
     42  0.000000D+00  0.000000D+00  0.282511D-01  0.606824D-01  0.000000D+00
     43 -0.209723D+01 -0.121084D+01  0.258654D+01 -0.162733D+01 -0.238854D+01
     44 -0.148951D+01 -0.859971D+00  0.472949D+01 -0.126362D+01 -0.232268D+01
     45  0.501603D-01  0.289600D-01  0.547347D+00  0.128160D+01  0.488899D+00
     46  0.333167D+00  0.192354D+00  0.195008D+01  0.276772D+01  0.925974D+00
               11            12            13            14            15 
     11  0.566765D+01
     12  0.000000D+00  0.472988D+01
     13  0.000000D+00  0.585647D+00  0.374321D+01
     14  0.456365D-01  0.000000D+00  0.000000D+00  0.336339D+01
     15  0.281501D+01  0.000000D+00  0.000000D+00  0.363109D-01  0.332146D+01
     16  0.000000D+00  0.270085D+01  0.236087D+00  0.000000D+00  0.000000D+00
     17  0.000000D+00  0.251891D+01  0.378331D-01  0.000000D+00  0.000000D+00
     18  0.000000D+00  0.247955D+01  0.461405D-01  0.000000D+00  0.000000D+00
     19 -0.424569D-01  0.000000D+00  0.000000D+00  0.655289D-01 -0.124610D-01
     20  0.275793D+00  0.000000D+00  0.000000D+00 -0.124610D-01  0.799177D-01
     21  0.000000D+00  0.590381D-01 -0.124610D-01  0.000000D+00  0.000000D+00
     22  0.137902D+01  0.161802D+01 -0.606426D+00  0.888628D+00  0.513050D+00
     23  0.134100D+01  0.346403D+01 -0.790796D+00  0.138508D+01  0.799674D+00
     24  0.000000D+00  0.111456D+01  0.117714D+01  0.000000D+00  0.000000D+00
     25  0.000000D+00  0.266567D+01  0.254173D+01  0.000000D+00  0.000000D+00
     26  0.000000D+00 -0.785103D+00  0.270952D+00  0.000000D+00  0.000000D+00
     27  0.158251D-01  0.000000D+00  0.000000D+00  0.929450D+00  0.120901D-01
     28  0.189296D+01  0.000000D+00  0.000000D+00  0.120901D-01  0.915490D+00
     29  0.000000D+00  0.393010D+01  0.313869D+01  0.000000D+00  0.000000D+00
     30  0.000000D+00 -0.204894D+01  0.105859D+01  0.000000D+00  0.000000D+00
     31  0.430104D-01  0.000000D+00  0.000000D+00  0.234309D+01  0.343952D-01
     32  0.342532D+01  0.000000D+00  0.000000D+00  0.343952D-01  0.230337D+01
     33  0.000000D+00  0.424426D+01  0.225851D+01  0.000000D+00  0.000000D+00
     34  0.000000D+00 -0.225851D+01  0.203658D+01  0.000000D+00  0.000000D+00
     35  0.343952D-01  0.000000D+00  0.000000D+00  0.298413D+01  0.324184D-01
     36  0.230337D+01  0.000000D+00  0.000000D+00  0.324184D-01  0.294669D+01
     37  0.000000D+00  0.221838D+01  0.183978D+01  0.000000D+00  0.000000D+00
     38  0.000000D+00  0.193904D+01  0.193569D+01  0.000000D+00  0.000000D+00
     39  0.000000D+00  0.191225D+01  0.190265D+01  0.000000D+00  0.000000D+00
     40  0.167271D-02  0.000000D+00  0.000000D+00 -0.221632D+00  0.678122D-02
     41 -0.133257D+01  0.000000D+00  0.000000D+00  0.678122D-02 -0.229463D+00
     42  0.000000D+00  0.401953D-01  0.495596D-01  0.000000D+00  0.000000D+00
     43 -0.137902D+01  0.161802D+01 -0.606426D+00 -0.888628D+00 -0.513050D+00
     44 -0.134100D+01  0.346403D+01 -0.790796D+00 -0.138508D+01 -0.799674D+00
     45  0.282266D+00  0.101390D+01  0.140106D+01  0.553065D+00  0.319312D+00
     46  0.534611D+00  0.243420D+01  0.267289D+01  0.955996D+00  0.551944D+00
               16            17            18            19            20 
     16  0.887461D+01
     17  0.283364D+01  0.823660D+01
     18  0.280046D+01  0.272829D+01  0.809147D+01
     19  0.000000D+00  0.000000D+00  0.000000D+00  0.850092D+01
     20  0.000000D+00  0.000000D+00  0.000000D+00  0.862086D-01  0.840137D+01
     21  0.497726D-01  0.124466D+00  0.932295D-01  0.000000D+00  0.000000D+00
     22  0.155326D+01  0.228996D+01  0.135699D+01 -0.164125D+01 -0.947577D+00
     23  0.296063D+01  0.307834D+01  0.282205D+01 -0.330391D+00 -0.190751D+00
     24  0.104713D+01  0.142371D-01  0.142184D-01  0.000000D+00  0.000000D+00
     25  0.335754D+01  0.813890D+00  0.810748D+00  0.000000D+00  0.000000D+00
     26 -0.421660D+01 -0.126422D+01 -0.125900D+01  0.000000D+00  0.000000D+00
     27  0.000000D+00  0.000000D+00  0.000000D+00  0.163713D+01  0.433078D-02
     28  0.000000D+00  0.000000D+00  0.000000D+00  0.433078D-02  0.163213D+01
     29  0.336089D+01  0.210397D+01  0.208513D+01  0.000000D+00  0.000000D+00
     30 -0.384177D+01 -0.362643D+01 -0.358598D+01  0.000000D+00  0.000000D+00
     31  0.000000D+00  0.000000D+00  0.000000D+00  0.133064D+01 -0.167271D-02
     32  0.000000D+00  0.000000D+00  0.000000D+00 -0.167271D-02  0.133257D+01
     33  0.221838D+01  0.193904D+01  0.191225D+01  0.000000D+00  0.000000D+00
     34 -0.183978D+01 -0.193569D+01 -0.190265D+01  0.000000D+00  0.000000D+00
     35  0.000000D+00  0.000000D+00  0.000000D+00  0.221632D+00 -0.678122D-02
     36  0.000000D+00  0.000000D+00  0.000000D+00 -0.678122D-02  0.229463D+00
     37  0.488618D+01  0.141516D+01  0.141061D+01  0.000000D+00  0.000000D+00
     38  0.141516D+01  0.612633D+00  0.203662D+00  0.000000D+00  0.000000D+00
     39  0.141061D+01  0.203662D+00  0.609031D+00  0.000000D+00  0.000000D+00
     40  0.000000D+00  0.000000D+00  0.000000D+00 -0.279841D+01 -0.617519D-02
     41  0.000000D+00  0.000000D+00  0.000000D+00 -0.617519D-02 -0.279128D+01
     42  0.683827D-02  0.281637D-02  0.258640D-02  0.000000D+00  0.000000D+00
     43  0.155326D+01  0.228996D+01  0.135699D+01  0.164125D+01  0.947577D+00
     44  0.296063D+01  0.307834D+01  0.282205D+01  0.330391D+00  0.190751D+00
     45  0.135129D+00  0.294975D-01  0.186225D-01  0.735490D-01  0.424635D-01
     46  0.114867D+01  0.634943D+00  0.587955D+00  0.294966D+00  0.170299D+00
               21            22            23            24            25 
     21  0.818486D+01
     22  0.139945D+01  0.670738D+01
     23  0.384440D+00  0.405566D+01  0.541359D+01
     24  0.280517D-04  0.655154D-03  0.297634D+00  0.379758D+02
     25  0.471282D-02  0.713885D-01  0.991750D+00  0.325034D+01  0.954109D+01
     26 -0.782188D-02 -0.140069D+00 -0.963411D+00 -0.754548D-01 -0.547415D+00
     27  0.000000D+00  0.501603D-01  0.333167D+00  0.000000D+00  0.000000D+00
     28  0.000000D+00  0.289600D-01  0.192354D+00  0.000000D+00  0.000000D+00
     29  0.282511D-01  0.547347D+00  0.195008D+01  0.395732D+01  0.722449D+01
     30 -0.606824D-01 -0.128160D+01 -0.276772D+01 -0.126760D-01 -0.400277D+00
     31  0.000000D+00  0.488899D+00  0.925974D+00  0.000000D+00  0.000000D+00
     32  0.000000D+00  0.282266D+00  0.534611D+00  0.000000D+00  0.000000D+00
     33  0.401953D-01  0.101390D+01  0.243420D+01  0.147551D+01  0.340376D+01
     34 -0.495596D-01 -0.140106D+01 -0.267289D+01 -0.255468D-02 -0.119276D+00
     35  0.000000D+00  0.553065D+00  0.955996D+00  0.000000D+00  0.000000D+00
     36  0.000000D+00  0.319312D+00  0.551944D+00  0.000000D+00  0.000000D+00
     37  0.683827D-02  0.135129D+00  0.114867D+01  0.113282D+01  0.647992D+01
     38  0.281637D-02  0.294975D-01  0.634943D+00  0.112456D+01  0.621245D+01
     39  0.258640D-02  0.186225D-01  0.587955D+00  0.112238D+01  0.614508D+01
     40  0.000000D+00 -0.735490D-01 -0.294966D+00  0.000000D+00  0.000000D+00
     41  0.000000D+00 -0.424635D-01 -0.170299D+00  0.000000D+00  0.000000D+00
     42  0.610985D+00  0.163124D-01  0.704821D-01  0.327146D-02  0.101055D+00
     43  0.139945D+01  0.103927D+00  0.897561D+00  0.655154D-03  0.713885D-01
     44  0.384440D+00  0.897561D+00  0.234661D+01  0.297634D+00  0.991750D+00
     45  0.163124D-01  0.390719D-02  0.247619D+00  0.638255D+00  0.217119D+01
     46  0.704821D-01  0.247619D+00  0.107106D+01  0.194661D+01  0.400503D+01
               26            27            28            29            30 
     26  0.103022D+02
     27  0.000000D+00  0.998008D+01
     28  0.000000D+00  0.682485D-01  0.990128D+01
     29 -0.552654D+00  0.000000D+00  0.000000D+00  0.758242D+01
     30  0.477705D+01  0.000000D+00  0.000000D+00 -0.834042D+00  0.660462D+01
     31  0.000000D+00  0.444222D+01  0.588587D-01  0.000000D+00  0.000000D+00
     32  0.000000D+00  0.588587D-01  0.437425D+01  0.000000D+00  0.000000D+00
     33 -0.309548D+00  0.000000D+00  0.000000D+00  0.475783D+01 -0.752131D+00
     34  0.131075D+01  0.000000D+00  0.000000D+00 -0.383225D+00  0.329621D+01
     35  0.000000D+00  0.119944D+01  0.177648D-01  0.000000D+00  0.000000D+00
     36  0.000000D+00  0.177648D-01  0.117893D+01  0.000000D+00  0.000000D+00
     37 -0.898759D+00  0.000000D+00  0.000000D+00  0.542661D+01 -0.781273D+00
     38 -0.181380D+00  0.000000D+00  0.000000D+00  0.511303D+01 -0.130925D+00
     39 -0.210964D+00  0.000000D+00  0.000000D+00  0.504117D+01 -0.159229D+00
     40  0.000000D+00 -0.314160D+00  0.443756D-01  0.000000D+00  0.000000D+00
     41  0.000000D+00  0.443756D-01 -0.365400D+00  0.000000D+00  0.000000D+00
     42  0.443756D-01  0.000000D+00  0.000000D+00  0.107802D+00  0.424569D-01
     43 -0.140069D+00 -0.501603D-01 -0.289600D-01  0.547347D+00 -0.128160D+01
     44 -0.963411D+00 -0.333167D+00 -0.192354D+00  0.195008D+01 -0.276772D+01
     45  0.142181D+01  0.209723D+01  0.121084D+01  0.258654D+01  0.162733D+01
     46  0.800304D+00  0.148951D+01  0.859971D+00  0.472949D+01  0.126362D+01
               31            32            33            34            35 
     31  0.578357D+01
     32  0.100388D+00  0.566765D+01
     33  0.000000D+00  0.000000D+00  0.472988D+01
     34  0.000000D+00  0.000000D+00 -0.585647D+00  0.374321D+01
     35  0.286770D+01  0.456365D-01  0.000000D+00  0.000000D+00  0.336339D+01
     36  0.456365D-01  0.281501D+01  0.000000D+00  0.000000D+00  0.363109D-01
     37  0.000000D+00  0.000000D+00  0.270085D+01 -0.236087D+00  0.000000D+00
     38  0.000000D+00  0.000000D+00  0.251891D+01 -0.378331D-01  0.000000D+00
     39  0.000000D+00  0.000000D+00  0.247955D+01 -0.461405D-01  0.000000D+00
     40 -0.226768D+00  0.424569D-01  0.000000D+00  0.000000D+00 -0.655289D-01
     41  0.424569D-01 -0.275793D+00  0.000000D+00  0.000000D+00  0.124610D-01
     42  0.000000D+00  0.000000D+00  0.590381D-01  0.124610D-01  0.000000D+00
     43 -0.488899D+00 -0.282266D+00  0.101390D+01 -0.140106D+01 -0.553065D+00
     44 -0.925974D+00 -0.534611D+00  0.243420D+01 -0.267289D+01 -0.955996D+00
     45  0.238854D+01  0.137902D+01  0.161802D+01  0.606426D+00  0.888628D+00
     46  0.232268D+01  0.134100D+01  0.346403D+01  0.790796D+00  0.138508D+01
               36            37            38            39            40 
     36  0.332146D+01
     37  0.000000D+00  0.887461D+01
     38  0.000000D+00  0.283364D+01  0.823660D+01
     39  0.000000D+00  0.280046D+01  0.272829D+01  0.809147D+01
     40  0.124610D-01  0.000000D+00  0.000000D+00  0.000000D+00  0.850092D+01
     41 -0.799177D-01  0.000000D+00  0.000000D+00  0.000000D+00  0.862086D-01
     42  0.000000D+00  0.497726D-01  0.124466D+00  0.932295D-01  0.000000D+00
     43 -0.319312D+00  0.135129D+00  0.294975D-01  0.186225D-01  0.735490D-01
     44 -0.551944D+00  0.114867D+01  0.634943D+00  0.587955D+00  0.294966D+00
     45  0.513050D+00  0.155326D+01  0.228996D+01  0.135699D+01  0.164125D+01
     46  0.799674D+00  0.296063D+01  0.307834D+01  0.282205D+01  0.330391D+00
               41            42            43            44            45 
     41  0.840137D+01
     42  0.000000D+00  0.818486D+01
     43  0.424635D-01  0.163124D-01  0.670738D+01
     44  0.170299D+00  0.704821D-01  0.405566D+01  0.541359D+01
     45  0.947577D+00  0.139945D+01  0.108997D-03  0.592825D-01  0.670738D+01
     46  0.190751D+00  0.384440D+00  0.592825D-01  0.486071D+00  0.405566D+01
               46 
     46  0.541359D+01
 ****** Core Hamiltonian ****** 
                1             2             3             4             5 
      1 -0.531170D+01
      2 -0.379592D+01 -0.517167D+01
      3 -0.100419D-02 -0.302194D+00 -0.217682D+02
      4 -0.867459D-01 -0.100482D+01 -0.449791D+01 -0.860884D+01
      5 -0.162290D+00 -0.952036D+00 -0.754548D-01 -0.547415D+00 -0.812383D+01
      6  0.595523D-01  0.328359D+00  0.000000D+00  0.000000D+00  0.000000D+00
      7  0.343825D-01  0.189578D+00  0.000000D+00  0.000000D+00  0.000000D+00
      8 -0.561489D+00 -0.194306D+01 -0.386737D+01 -0.691777D+01 -0.552654D+00
      9 -0.126770D+01 -0.269463D+01 -0.126760D-01 -0.400277D+00 -0.440038D+01
     10  0.483025D+00  0.895079D+00  0.000000D+00  0.000000D+00  0.000000D+00
     11  0.278874D+00  0.516774D+00  0.000000D+00  0.000000D+00  0.000000D+00
     12 -0.100307D+01 -0.240668D+01 -0.146643D+01 -0.335510D+01 -0.309548D+00
     13 -0.136708D+01 -0.260527D+01 -0.255468D-02 -0.119276D+00 -0.127719D+01
     14  0.538699D+00  0.927413D+00  0.000000D+00  0.000000D+00  0.000000D+00
     15  0.311018D+00  0.535442D+00  0.000000D+00  0.000000D+00  0.000000D+00
     16 -0.161300D+00 -0.114756D+01 -0.165764D+01 -0.595988D+01 -0.898759D+00
     17 -0.389805D-01 -0.648381D+00 -0.164938D+01 -0.569240D+01 -0.181380D+00
     18 -0.256858D-01 -0.603503D+00 -0.164720D+01 -0.562503D+01 -0.210964D+00
     19  0.884232D-01  0.281996D+00  0.000000D+00  0.000000D+00  0.000000D+00
     20  0.510511D-01  0.162811D+00  0.000000D+00  0.000000D+00  0.000000D+00
     21 -0.199421D-01 -0.673171D-01 -0.327146D-02 -0.101055D+00  0.443756D-01
     22 -0.173115D-03 -0.649070D-01 -0.673062D+00 -0.213139D+01  0.130070D+01
     23 -0.649070D-01 -0.498863D+00 -0.192282D+01 -0.389165D+01  0.731559D+00
     24 -0.673062D+00 -0.192282D+01 -0.187616D-03 -0.417212D+00 -0.907603D+00
     25 -0.213139D+01 -0.389165D+01 -0.417212D+00 -0.199859D+01 -0.269926D+01
     26 -0.130070D+01 -0.731559D+00  0.907603D+00  0.269926D+01  0.306283D+01
     27  0.192519D+01  0.139185D+01  0.000000D+00  0.000000D+00  0.000000D+00
     28  0.111151D+01  0.803588D+00  0.000000D+00  0.000000D+00  0.000000D+00
     29 -0.249304D+01 -0.459663D+01 -0.135751D+01 -0.324209D+01 -0.236849D+01
     30 -0.148729D+01 -0.115609D+01  0.272529D+01  0.487928D+01  0.161843D+01
     31  0.218960D+01  0.216993D+01  0.000000D+00  0.000000D+00  0.000000D+00
     32  0.126416D+01  0.125281D+01  0.000000D+00  0.000000D+00  0.000000D+00
     33 -0.158983D+01 -0.340437D+01 -0.110898D+01 -0.263469D+01 -0.772828D+00
     34 -0.585438D+00 -0.754006D+00  0.116644D+01  0.248688D+01 -0.265481D+00
     35  0.858812D+00  0.133281D+01  0.000000D+00  0.000000D+00  0.000000D+00
     36  0.495835D+00  0.769500D+00  0.000000D+00  0.000000D+00  0.000000D+00
     37 -0.151662D+01 -0.287548D+01 -0.112312D+01 -0.317208D+01 -0.373219D+01
     38 -0.212954D+01 -0.297565D+01 -0.262418D-01 -0.884174D+00 -0.130982D+01
     39 -0.136014D+01 -0.274254D+01 -0.262231D-01 -0.881032D+00 -0.130460D+01
     40  0.134211D+01  0.288003D+00  0.000000D+00  0.000000D+00  0.000000D+00
     41  0.774866D+00  0.166279D+00  0.000000D+00  0.000000D+00  0.000000D+00
     42 -0.115409D+01 -0.349674D+00 -0.280517D-04 -0.471282D-02 -0.782188D-02
     43 -0.595969D-02 -0.260855D+00 -0.673062D+00 -0.213139D+01  0.130070D+01
     44 -0.260855D+00 -0.107865D+01 -0.192282D+01 -0.389165D+01  0.731559D+00
     45 -0.125459D+00 -0.902186D+00 -0.100419D-02 -0.867459D-01 -0.162290D+00
     46 -0.902186D+00 -0.231752D+01 -0.302194D+00 -0.100482D+01 -0.952036D+00
                6             7             8             9            10 
      6 -0.780175D+01
      7 -0.682485D-01 -0.772295D+01
      8  0.000000D+00  0.000000D+00 -0.732935D+01
      9  0.000000D+00  0.000000D+00 -0.834042D+00 -0.618283D+01
     10 -0.406554D+01 -0.588587D-01  0.000000D+00  0.000000D+00 -0.536178D+01
     11 -0.588587D-01 -0.399758D+01  0.000000D+00  0.000000D+00 -0.100388D+00
     12  0.000000D+00  0.000000D+00 -0.468192D+01 -0.752131D+00  0.000000D+00
     13  0.000000D+00  0.000000D+00 -0.383225D+00 -0.319386D+01  0.000000D+00
     14 -0.116588D+01 -0.177648D-01  0.000000D+00  0.000000D+00 -0.276535D+01
     15 -0.177648D-01 -0.114537D+01  0.000000D+00  0.000000D+00 -0.456365D-01
     16  0.000000D+00  0.000000D+00 -0.520032D+01 -0.781273D+00  0.000000D+00
     17  0.000000D+00  0.000000D+00 -0.488675D+01 -0.130925D+00  0.000000D+00
     18  0.000000D+00  0.000000D+00 -0.481488D+01 -0.159229D+00  0.000000D+00
     19 -0.314160D+00  0.443756D-01  0.000000D+00  0.000000D+00 -0.226768D+00
     20  0.443756D-01 -0.365400D+00  0.000000D+00  0.000000D+00  0.424569D-01
     21  0.000000D+00  0.000000D+00 -0.107802D+00  0.424569D-01  0.000000D+00
     22 -0.192519D+01 -0.111151D+01 -0.249304D+01  0.148729D+01 -0.218960D+01
     23 -0.139185D+01 -0.803588D+00 -0.459663D+01  0.115609D+01 -0.216993D+01
     24  0.000000D+00  0.000000D+00 -0.135751D+01 -0.272529D+01  0.000000D+00
     25  0.000000D+00  0.000000D+00 -0.324209D+01 -0.487928D+01  0.000000D+00
     26  0.000000D+00  0.000000D+00  0.236849D+01  0.161843D+01  0.000000D+00
     27 -0.982821D+00 -0.370273D-02  0.000000D+00  0.000000D+00 -0.180603D+01
     28 -0.370273D-02 -0.978546D+00  0.000000D+00  0.000000D+00 -0.158251D-01
     29  0.000000D+00  0.000000D+00 -0.453322D+01 -0.463227D+01  0.000000D+00
     30  0.000000D+00  0.000000D+00  0.463227D+01  0.667974D+00  0.000000D+00
     31 -0.180603D+01 -0.158251D-01  0.000000D+00  0.000000D+00 -0.328383D+01
     32 -0.158251D-01 -0.178775D+01  0.000000D+00  0.000000D+00 -0.430104D-01
     33  0.000000D+00  0.000000D+00 -0.387856D+01 -0.200935D+01  0.000000D+00
     34  0.000000D+00  0.000000D+00  0.306100D+01 -0.103234D+01  0.000000D+00
     35 -0.906383D+00 -0.120901D-01  0.000000D+00  0.000000D+00 -0.226869D+01
     36 -0.120901D-01 -0.892423D+00  0.000000D+00  0.000000D+00 -0.343952D-01
     37  0.000000D+00  0.000000D+00 -0.326277D+01 -0.363763D+01  0.000000D+00
     38  0.000000D+00  0.000000D+00 -0.207627D+01 -0.345565D+01  0.000000D+00
     39  0.000000D+00  0.000000D+00 -0.205744D+01 -0.341519D+01  0.000000D+00
     40  0.149451D+01  0.433078D-02  0.000000D+00  0.000000D+00  0.121384D+01
     41  0.433078D-02  0.148951D+01  0.000000D+00  0.000000D+00 -0.167271D-02
     42  0.000000D+00  0.000000D+00 -0.282511D-01 -0.606824D-01  0.000000D+00
     43  0.192519D+01  0.111151D+01 -0.249304D+01  0.148729D+01  0.218960D+01
     44  0.139185D+01  0.803588D+00 -0.459663D+01  0.115609D+01  0.216993D+01
     45 -0.595523D-01 -0.343825D-01 -0.561489D+00 -0.126770D+01 -0.483025D+00
     46 -0.328359D+00 -0.189578D+00 -0.194306D+01 -0.269463D+01 -0.895079D+00
               11            12            13            14            15 
     11 -0.524586D+01
     12  0.000000D+00 -0.466418D+01
     13  0.000000D+00 -0.585647D+00 -0.363371D+01
     14 -0.456365D-01  0.000000D+00  0.000000D+00 -0.325389D+01
     15 -0.271266D+01  0.000000D+00  0.000000D+00 -0.363109D-01 -0.321196D+01
     16  0.000000D+00 -0.266202D+01 -0.236087D+00  0.000000D+00  0.000000D+00
     17  0.000000D+00 -0.248007D+01 -0.378331D-01  0.000000D+00  0.000000D+00
     18  0.000000D+00 -0.244072D+01 -0.461405D-01  0.000000D+00  0.000000D+00
     19  0.424569D-01  0.000000D+00  0.000000D+00 -0.655289D-01  0.124610D-01
     20 -0.275793D+00  0.000000D+00  0.000000D+00  0.124610D-01 -0.799177D-01
     21  0.000000D+00 -0.590381D-01  0.124610D-01  0.000000D+00  0.000000D+00
     22 -0.126416D+01 -0.158983D+01  0.585438D+00 -0.858812D+00 -0.495835D+00
     23 -0.125281D+01 -0.340437D+01  0.754006D+00 -0.133281D+01 -0.769500D+00
     24  0.000000D+00 -0.110898D+01 -0.116644D+01  0.000000D+00  0.000000D+00
     25  0.000000D+00 -0.263469D+01 -0.248688D+01  0.000000D+00  0.000000D+00
     26  0.000000D+00  0.772828D+00 -0.265481D+00  0.000000D+00  0.000000D+00
     27 -0.158251D-01  0.000000D+00  0.000000D+00 -0.906383D+00 -0.120901D-01
     28 -0.178775D+01  0.000000D+00  0.000000D+00 -0.120901D-01 -0.892423D+00
     29  0.000000D+00 -0.387856D+01 -0.306100D+01  0.000000D+00  0.000000D+00
     30  0.000000D+00  0.200935D+01 -0.103234D+01  0.000000D+00  0.000000D+00
     31 -0.430104D-01  0.000000D+00  0.000000D+00 -0.226869D+01 -0.343952D-01
     32 -0.323417D+01  0.000000D+00  0.000000D+00 -0.343952D-01 -0.222898D+01
     33  0.000000D+00 -0.419262D+01 -0.221079D+01  0.000000D+00  0.000000D+00
     34  0.000000D+00  0.221079D+01 -0.198307D+01  0.000000D+00  0.000000D+00
     35 -0.343952D-01  0.000000D+00  0.000000D+00 -0.289447D+01 -0.324184D-01
     36 -0.222898D+01  0.000000D+00  0.000000D+00 -0.324184D-01 -0.285703D+01
     37  0.000000D+00 -0.219225D+01 -0.179941D+01  0.000000D+00  0.000000D+00
     38  0.000000D+00 -0.191487D+01 -0.189057D+01  0.000000D+00  0.000000D+00
     39  0.000000D+00 -0.188807D+01 -0.185753D+01  0.000000D+00  0.000000D+00
     40 -0.167271D-02  0.000000D+00  0.000000D+00  0.215280D+00 -0.678122D-02
     41  0.121578D+01  0.000000D+00  0.000000D+00 -0.678122D-02  0.223110D+00
     42  0.000000D+00 -0.401953D-01 -0.495596D-01  0.000000D+00  0.000000D+00
     43  0.126416D+01 -0.158983D+01  0.585438D+00  0.858812D+00  0.495835D+00
     44  0.125281D+01 -0.340437D+01  0.754006D+00  0.133281D+01  0.769500D+00
     45 -0.278874D+00 -0.100307D+01 -0.136708D+01 -0.538699D+00 -0.311018D+00
     46 -0.516774D+00 -0.240668D+01 -0.260527D+01 -0.927413D+00 -0.535442D+00
               16            17            18            19            20 
     16 -0.714127D+01
     17 -0.296697D+01 -0.650327D+01
     18 -0.293379D+01 -0.286162D+01 -0.635814D+01
     19  0.000000D+00  0.000000D+00  0.000000D+00 -0.570092D+01
     20  0.000000D+00  0.000000D+00  0.000000D+00 -0.862086D-01 -0.560137D+01
     21 -0.497726D-01 -0.124466D+00 -0.932295D-01  0.000000D+00  0.000000D+00
     22 -0.151662D+01 -0.212954D+01 -0.136014D+01  0.134211D+01  0.774866D+00
     23 -0.287548D+01 -0.297565D+01 -0.274254D+01  0.288003D+00  0.166279D+00
     24 -0.112312D+01 -0.262418D-01 -0.262231D-01  0.000000D+00  0.000000D+00
     25 -0.317208D+01 -0.884174D+00 -0.881032D+00  0.000000D+00  0.000000D+00
     26  0.373219D+01  0.130982D+01  0.130460D+01  0.000000D+00  0.000000D+00
     27  0.000000D+00  0.000000D+00  0.000000D+00 -0.149451D+01 -0.433078D-02
     28  0.000000D+00  0.000000D+00  0.000000D+00 -0.433078D-02 -0.148951D+01
     29 -0.326277D+01 -0.207627D+01 -0.205744D+01  0.000000D+00  0.000000D+00
     30  0.363763D+01  0.345565D+01  0.341519D+01  0.000000D+00  0.000000D+00
     31  0.000000D+00  0.000000D+00  0.000000D+00 -0.121384D+01  0.167271D-02
     32  0.000000D+00  0.000000D+00  0.000000D+00  0.167271D-02 -0.121578D+01
     33 -0.219225D+01 -0.191487D+01 -0.188807D+01  0.000000D+00  0.000000D+00
     34  0.179941D+01  0.189057D+01  0.185753D+01  0.000000D+00  0.000000D+00
     35  0.000000D+00  0.000000D+00  0.000000D+00 -0.215280D+00  0.678122D-02
     36  0.000000D+00  0.000000D+00  0.000000D+00  0.678122D-02 -0.223110D+00
     37 -0.415900D+01 -0.148608D+01 -0.148152D+01  0.000000D+00  0.000000D+00
     38 -0.148608D+01 -0.637899D+00 -0.265647D+00  0.000000D+00  0.000000D+00
     39 -0.148152D+01 -0.265647D+00 -0.634297D+00  0.000000D+00  0.000000D+00
     40  0.000000D+00  0.000000D+00  0.000000D+00  0.225698D+01  0.617519D-02
     41  0.000000D+00  0.000000D+00  0.000000D+00  0.617519D-02  0.224985D+01
     42 -0.683827D-02 -0.281637D-02 -0.258640D-02  0.000000D+00  0.000000D+00
     43 -0.151662D+01 -0.212954D+01 -0.136014D+01 -0.134211D+01 -0.774866D+00
     44 -0.287548D+01 -0.297565D+01 -0.274254D+01 -0.288003D+00 -0.166279D+00
     45 -0.161300D+00 -0.389805D-01 -0.256858D-01 -0.884232D-01 -0.510511D-01
     46 -0.114756D+01 -0.648381D+00 -0.603503D+00 -0.281996D+00 -0.162811D+00
               21            22            23            24            25 
     21 -0.538486D+01
     22 -0.115409D+01 -0.531170D+01
     23 -0.349674D+00 -0.379592D+01 -0.517167D+01
     24 -0.280517D-04 -0.100419D-02 -0.302194D+00 -0.217682D+02
     25 -0.471282D-02 -0.867459D-01 -0.100482D+01 -0.449791D+01 -0.860884D+01
     26  0.782188D-02  0.162290D+00  0.952036D+00  0.754548D-01  0.547415D+00
     27  0.000000D+00 -0.595523D-01 -0.328359D+00  0.000000D+00  0.000000D+00
     28  0.000000D+00 -0.343825D-01 -0.189578D+00  0.000000D+00  0.000000D+00
     29 -0.282511D-01 -0.561489D+00 -0.194306D+01 -0.386737D+01 -0.691777D+01
     30  0.606824D-01  0.126770D+01  0.269463D+01  0.126760D-01  0.400277D+00
     31  0.000000D+00 -0.483025D+00 -0.895079D+00  0.000000D+00  0.000000D+00
     32  0.000000D+00 -0.278874D+00 -0.516774D+00  0.000000D+00  0.000000D+00
     33 -0.401953D-01 -0.100307D+01 -0.240668D+01 -0.146643D+01 -0.335510D+01
     34  0.495596D-01  0.136708D+01  0.260527D+01  0.255468D-02  0.119276D+00
     35  0.000000D+00 -0.538699D+00 -0.927413D+00  0.000000D+00  0.000000D+00
     36  0.000000D+00 -0.311018D+00 -0.535442D+00  0.000000D+00  0.000000D+00
     37 -0.683827D-02 -0.161300D+00 -0.114756D+01 -0.165764D+01 -0.595988D+01
     38 -0.281637D-02 -0.389805D-01 -0.648381D+00 -0.164938D+01 -0.569240D+01
     39 -0.258640D-02 -0.256858D-01 -0.603503D+00 -0.164720D+01 -0.562503D+01
     40  0.000000D+00  0.884232D-01  0.281996D+00  0.000000D+00  0.000000D+00
     41  0.000000D+00  0.510511D-01  0.162811D+00  0.000000D+00  0.000000D+00
     42 -0.555907D+00 -0.199421D-01 -0.673171D-01 -0.327146D-02 -0.101055D+00
     43 -0.115409D+01 -0.125459D+00 -0.902186D+00 -0.100419D-02 -0.867459D-01
     44 -0.349674D+00 -0.902186D+00 -0.231752D+01 -0.302194D+00 -0.100482D+01
     45 -0.199421D-01 -0.595969D-02 -0.260855D+00 -0.673062D+00 -0.213139D+01
     46 -0.673171D-01 -0.260855D+00 -0.107865D+01 -0.192282D+01 -0.389165D+01
               26            27            28            29            30 
     26 -0.812383D+01
     27  0.000000D+00 -0.780175D+01
     28  0.000000D+00 -0.682485D-01 -0.772295D+01
     29  0.552654D+00  0.000000D+00  0.000000D+00 -0.732935D+01
     30 -0.440038D+01  0.000000D+00  0.000000D+00  0.834042D+00 -0.618283D+01
     31  0.000000D+00 -0.406554D+01 -0.588587D-01  0.000000D+00  0.000000D+00
     32  0.000000D+00 -0.588587D-01 -0.399758D+01  0.000000D+00  0.000000D+00
     33  0.309548D+00  0.000000D+00  0.000000D+00 -0.468192D+01  0.752131D+00
     34 -0.127719D+01  0.000000D+00  0.000000D+00  0.383225D+00 -0.319386D+01
     35  0.000000D+00 -0.116588D+01 -0.177648D-01  0.000000D+00  0.000000D+00
     36  0.000000D+00 -0.177648D-01 -0.114537D+01  0.000000D+00  0.000000D+00
     37  0.898759D+00  0.000000D+00  0.000000D+00 -0.520032D+01  0.781273D+00
     38  0.181380D+00  0.000000D+00  0.000000D+00 -0.488675D+01  0.130925D+00
     39  0.210964D+00  0.000000D+00  0.000000D+00 -0.481488D+01  0.159229D+00
     40  0.000000D+00  0.314160D+00 -0.443756D-01  0.000000D+00  0.000000D+00
     41  0.000000D+00 -0.443756D-01  0.365400D+00  0.000000D+00  0.000000D+00
     42 -0.443756D-01  0.000000D+00  0.000000D+00 -0.107802D+00 -0.424569D-01
     43  0.162290D+00  0.595523D-01  0.343825D-01 -0.561489D+00  0.126770D+01
     44  0.952036D+00  0.328359D+00  0.189578D+00 -0.194306D+01  0.269463D+01
     45 -0.130070D+01 -0.192519D+01 -0.111151D+01 -0.249304D+01 -0.148729D+01
     46 -0.731559D+00 -0.139185D+01 -0.803588D+00 -0.459663D+01 -0.115609D+01
               31            32            33            34            35 
     31 -0.536178D+01
     32 -0.100388D+00 -0.524586D+01
     33  0.000000D+00  0.000000D+00 -0.466418D+01
     34  0.000000D+00  0.000000D+00  0.585647D+00 -0.363371D+01
     35 -0.276535D+01 -0.456365D-01  0.000000D+00  0.000000D+00 -0.325389D+01
     36 -0.456365D-01 -0.271266D+01  0.000000D+00  0.000000D+00 -0.363109D-01
     37  0.000000D+00  0.000000D+00 -0.266202D+01  0.236087D+00  0.000000D+00
     38  0.000000D+00  0.000000D+00 -0.248007D+01  0.378331D-01  0.000000D+00
     39  0.000000D+00  0.000000D+00 -0.244072D+01  0.461405D-01  0.000000D+00
     40  0.226768D+00 -0.424569D-01  0.000000D+00  0.000000D+00  0.655289D-01
     41 -0.424569D-01  0.275793D+00  0.000000D+00  0.000000D+00 -0.124610D-01
     42  0.000000D+00  0.000000D+00 -0.590381D-01 -0.124610D-01  0.000000D+00
     43  0.483025D+00  0.278874D+00 -0.100307D+01  0.136708D+01  0.538699D+00
     44  0.895079D+00  0.516774D+00 -0.240668D+01  0.260527D+01  0.927413D+00
     45 -0.218960D+01 -0.126416D+01 -0.158983D+01 -0.585438D+00 -0.858812D+00
     46 -0.216993D+01 -0.125281D+01 -0.340437D+01 -0.754006D+00 -0.133281D+01
               36            37            38            39            40 
     36 -0.321196D+01
     37  0.000000D+00 -0.714127D+01
     38  0.000000D+00 -0.296697D+01 -0.650327D+01
     39  0.000000D+00 -0.293379D+01 -0.286162D+01 -0.635814D+01
     40 -0.124610D-01  0.000000D+00  0.000000D+00  0.000000D+00 -0.570092D+01
     41  0.799177D-01  0.000000D+00  0.000000D+00  0.000000D+00 -0.862086D-01
     42  0.000000D+00 -0.497726D-01 -0.124466D+00 -0.932295D-01  0.000000D+00
     43  0.311018D+00 -0.161300D+00 -0.389805D-01 -0.256858D-01 -0.884232D-01
     44  0.535442D+00 -0.114756D+01 -0.648381D+00 -0.603503D+00 -0.281996D+00
[...]
  22 3   H  1S          0.05309   0.01770   0.04267   0.01411   0.03079
  23        2S          0.02911   0.00970   0.02640   0.01045   0.02675
  24 4   C  1S          0.00000   0.00000  -0.00020  -0.00218   0.00000
  25        2S          0.00000   0.00000   0.00748   0.02419   0.00000
  26        2PX         0.00000   0.00000   0.03225   0.01634   0.00000
  27        2PY         0.01173   0.00000   0.00000   0.00000   0.01189
  28        2PZ         0.00000   0.02886   0.00000   0.00000   0.00000
  29        3S          0.00000   0.00000  -0.00927   0.01905   0.00000
  30        3PX         0.00000   0.00000   0.01905   0.00165   0.00000
  31        3PY         0.01189   0.00000   0.00000   0.00000   0.01572
  32        3PZ         0.00000   0.03699   0.00000   0.00000   0.00000
  33        4S          0.00000   0.00000   0.01145  -0.00232   0.00000
  34        4PX         0.00000   0.00000   0.00442  -0.00172   0.00000
  35        4PY        -0.00032   0.00000   0.00000   0.00000   0.00023
  36        4PZ         0.00000   0.00361   0.00000   0.00000   0.00000
  37        5XX         0.00000   0.00000   0.00278   0.00028   0.00000
  38        5YY         0.00000   0.00000  -0.00139  -0.00138   0.00000
  39        5ZZ         0.00000   0.00000  -0.00082  -0.00094   0.00000
  40        5XY         0.00262   0.00000   0.00000   0.00000   0.00116
  41        5XZ         0.00000   0.00249   0.00000   0.00000   0.00000
  42        5YZ         0.00000   0.00000   0.00000   0.00000   0.00000
  43 5   H  1S          0.05309   0.01770   0.04267   0.01411   0.03079
  44        2S          0.02911   0.00970   0.02640   0.01045   0.02675
  45 6   H  1S         -0.00010  -0.00003  -0.00237  -0.00288  -0.00099
  46        2S         -0.00158  -0.00053  -0.00553  -0.00752  -0.00322
                          11        12        13        14        15
  11        3PZ         0.11400
  12        4S          0.00000   0.00384
  13        4PX         0.00000   0.00000   0.00267
  14        4PY         0.00000   0.00000   0.00000   0.00460
  15        4PZ         0.01454   0.00000   0.00000   0.00000   0.00554
  16        5XX         0.00000   0.00006   0.00000   0.00000   0.00000
  17        5YY         0.00000  -0.00009   0.00000   0.00000   0.00000
  18        5ZZ         0.00000   0.00006   0.00000   0.00000   0.00000
  19        5XY         0.00000   0.00000   0.00000   0.00000   0.00000
  20        5XZ         0.00000   0.00000   0.00000   0.00000   0.00000
  21        5YZ         0.00000   0.00000   0.00000   0.00000   0.00000
  22 3   H  1S          0.01026  -0.00130   0.00142   0.00288   0.00096
  23        2S          0.00891  -0.00027   0.00185   0.00490   0.00163
  24 4   C  1S          0.00000  -0.00188  -0.00065   0.00000   0.00000
  25        2S          0.00000   0.00526   0.00337   0.00000   0.00000
  26        2PX         0.00000  -0.00176  -0.00121   0.00000   0.00000
  27        2PY         0.00000   0.00000   0.00000  -0.00032   0.00000
  28        2PZ         0.03699   0.00000   0.00000   0.00000   0.00361
  29        3S          0.00000   0.01145   0.00442   0.00000   0.00000
  30        3PX         0.00000  -0.00232  -0.00172   0.00000   0.00000
  31        3PY         0.00000   0.00000   0.00000   0.00023   0.00000
  32        3PZ         0.05508   0.00000   0.00000   0.00000   0.00880
  33        4S          0.00000  -0.00216  -0.00118   0.00000   0.00000
  34        4PX         0.00000  -0.00118  -0.00081   0.00000   0.00000
  35        4PY         0.00000   0.00000   0.00000  -0.00092   0.00000
  36        4PZ         0.00880   0.00000   0.00000   0.00000   0.00316
  37        5XX         0.00000  -0.00013   0.00003   0.00000   0.00000
  38        5YY         0.00000   0.00031  -0.00015   0.00000   0.00000
  39        5ZZ         0.00000  -0.00001  -0.00011   0.00000   0.00000
  40        5XY         0.00000   0.00000   0.00000   0.00005   0.00000
  41        5XZ         0.00128   0.00000   0.00000   0.00000   0.00005
  42        5YZ         0.00000   0.00000   0.00000   0.00000   0.00000
  43 5   H  1S          0.01026  -0.00130   0.00142   0.00288   0.00096
  44        2S          0.00891  -0.00027   0.00185   0.00490   0.00163
  45 6   H  1S         -0.00033   0.00241  -0.00059  -0.00106  -0.00035
  46        2S         -0.00107   0.00324  -0.00204  -0.00228  -0.00076
                          16        17        18        19        20
  16        5XX         0.00051
  17        5YY        -0.00006   0.00072
  18        5ZZ         0.00000   0.00011   0.00059
  19        5XY         0.00000   0.00000   0.00000   0.00154
  20        5XZ         0.00000   0.00000   0.00000   0.00000   0.00087
  21        5YZ         0.00000   0.00000   0.00000   0.00000   0.00000
  22 3   H  1S         -0.00054   0.00152  -0.00042   0.00267   0.00089
  23        2S         -0.00072   0.00137  -0.00003   0.00054   0.00018
  24 4   C  1S         -0.00029   0.00000   0.00000   0.00000   0.00000
  25        2S          0.00322  -0.00065  -0.00050   0.00000   0.00000
  26        2PX         0.00156  -0.00143  -0.00117   0.00000   0.00000
  27        2PY         0.00000   0.00000   0.00000   0.00262   0.00000
  28        2PZ         0.00000   0.00000   0.00000   0.00000   0.00249
  29        3S          0.00278  -0.00139  -0.00082   0.00000   0.00000
  30        3PX         0.00028  -0.00138  -0.00094   0.00000   0.00000
  31        3PY         0.00000   0.00000   0.00000   0.00116   0.00000
  32        3PZ         0.00000   0.00000   0.00000   0.00000   0.00128
  33        4S         -0.00013   0.00031  -0.00001   0.00000   0.00000
  34        4PX         0.00003  -0.00015  -0.00011   0.00000   0.00000
  35        4PY         0.00000   0.00000   0.00000   0.00005   0.00000
  36        4PZ         0.00000   0.00000   0.00000   0.00000   0.00005
  37        5XX         0.00004  -0.00002  -0.00005   0.00000   0.00000
  38        5YY        -0.00002   0.00002   0.00001   0.00000   0.00000
  39        5ZZ        -0.00005   0.00001   0.00002   0.00000   0.00000
  40        5XY         0.00000   0.00000   0.00000  -0.00037   0.00000
  41        5XZ         0.00000   0.00000   0.00000   0.00000  -0.00001
  42        5YZ         0.00000   0.00000   0.00000   0.00000   0.00000
  43 5   H  1S         -0.00054   0.00152  -0.00042   0.00267   0.00089
  44        2S         -0.00072   0.00137  -0.00003   0.00054   0.00018
  45 6   H  1S          0.00003   0.00000   0.00000   0.00008   0.00003
  46        2S          0.00001   0.00014   0.00009   0.00029   0.00010
                          21        22        23        24        25
  21        5YZ         0.00064
  22 3   H  1S          0.00137   0.21506
  23        2S          0.00016   0.09368   0.10418
  24 4   C  1S          0.00000   0.00000   0.00017   2.05312
  25        2S          0.00000  -0.00022  -0.00287  -0.01404   0.32520
  26        2PX         0.00000  -0.00058  -0.00589   0.00000   0.00000
  27        2PY         0.00000  -0.00010  -0.00158   0.00000   0.00000
  28        2PZ         0.00000  -0.00003  -0.00053   0.00000   0.00000
  29        3S          0.00000  -0.00237  -0.00553  -0.03011   0.21825
  30        3PX         0.00000  -0.00288  -0.00752   0.00000   0.00000
  31        3PY         0.00000  -0.00099  -0.00322   0.00000   0.00000
  32        3PZ         0.00000  -0.00033  -0.00107   0.00000   0.00000
  33        4S          0.00000   0.00241   0.00324   0.00252  -0.00602
  34        4PX         0.00000  -0.00059  -0.00204   0.00000   0.00000
  35        4PY         0.00000  -0.00106  -0.00228   0.00000   0.00000
  36        4PZ         0.00000  -0.00035  -0.00076   0.00000   0.00000
  37        5XX         0.00000   0.00003   0.00001  -0.00149   0.00024
  38        5YY         0.00000   0.00000   0.00014  -0.00149  -0.00045
  39        5ZZ         0.00000   0.00000   0.00009  -0.00108  -0.00821
  40        5XY         0.00000   0.00008   0.00029   0.00000   0.00000
  41        5XZ         0.00000   0.00003   0.00010   0.00000   0.00000
  42        5YZ         0.00000   0.00000   0.00001   0.00000   0.00000
  43 5   H  1S          0.00137  -0.00049  -0.00693   0.00000  -0.00022
  44        2S          0.00016  -0.00693  -0.01889   0.00017  -0.00287
  45 6   H  1S          0.00000  -0.00001  -0.00100  -0.00192   0.03164
  46        2S          0.00001  -0.00100  -0.00467  -0.00126   0.01544
                          26        27        28        29        30
  26        2PX         0.42314
  27        2PY         0.00000   0.39021
  28        2PZ         0.00000   0.00000   0.34545
  29        3S          0.00000   0.00000   0.00000   0.23507
  30        3PX         0.07881   0.00000   0.00000   0.00000   0.04700
  31        3PY         0.00000   0.10097   0.00000   0.00000   0.00000
  32        3PZ         0.00000   0.00000   0.11119   0.00000   0.00000
  33        4S          0.00000   0.00000   0.00000  -0.01170   0.00000
  34        4PX         0.00533   0.00000   0.00000   0.00000   0.00648
  35        4PY         0.00000   0.00625   0.00000   0.00000   0.00000
  36        4PZ         0.00000   0.00000   0.00692   0.00000   0.00000
  37        5XX         0.00000   0.00000   0.00000  -0.00016   0.00000
  38        5YY         0.00000   0.00000   0.00000   0.00142   0.00000
  39        5ZZ         0.00000   0.00000   0.00000  -0.00509   0.00000
  40        5XY         0.00000   0.00000   0.00000   0.00000   0.00000
  41        5XZ         0.00000   0.00000   0.00000   0.00000   0.00000
  42        5YZ         0.00000   0.00000   0.00000   0.00000   0.00000
  43 5   H  1S         -0.00058  -0.00010  -0.00003  -0.00237  -0.00288
  44        2S         -0.00589  -0.00158  -0.00053  -0.00553  -0.00752
  45 6   H  1S          0.02616   0.05309   0.01770   0.04267   0.01411
  46        2S          0.01351   0.02911   0.00970   0.02640   0.01045
                          31        32        33        34        35
  31        3PY         0.08405
  32        3PZ         0.00000   0.11400
  33        4S          0.00000   0.00000   0.00384
  34        4PX         0.00000   0.00000   0.00000   0.00267
  35        4PY         0.01086   0.00000   0.00000   0.00000   0.00460
  36        4PZ         0.00000   0.01454   0.00000   0.00000   0.00000
  37        5XX         0.00000   0.00000   0.00006   0.00000   0.00000
  38        5YY         0.00000   0.00000  -0.00009   0.00000   0.00000
  39        5ZZ         0.00000   0.00000   0.00006   0.00000   0.00000
  40        5XY         0.00000   0.00000   0.00000   0.00000   0.00000
  41        5XZ         0.00000   0.00000   0.00000   0.00000   0.00000
  42        5YZ         0.00000   0.00000   0.00000   0.00000   0.00000
  43 5   H  1S         -0.00099  -0.00033   0.00241  -0.00059  -0.00106
  44        2S         -0.00322  -0.00107   0.00324  -0.00204  -0.00228
  45 6   H  1S          0.03079   0.01026  -0.00130   0.00142   0.00288
  46        2S          0.02675   0.00891  -0.00027   0.00185   0.00490
                          36        37        38        39        40
  36        4PZ         0.00554
  37        5XX         0.00000   0.00051
  38        5YY         0.00000  -0.00006   0.00072
  39        5ZZ         0.00000   0.00000   0.00011   0.00059
  40        5XY         0.00000   0.00000   0.00000   0.00000   0.00154
  41        5XZ         0.00000   0.00000   0.00000   0.00000   0.00000
  42        5YZ         0.00000   0.00000   0.00000   0.00000   0.00000
  43 5   H  1S         -0.00035   0.00003   0.00000   0.00000   0.00008
  44        2S         -0.00076   0.00001   0.00014   0.00009   0.00029
  45 6   H  1S          0.00096  -0.00054   0.00152  -0.00042   0.00267
  46        2S          0.00163  -0.00072   0.00137  -0.00003   0.00054
                          41        42        43        44        45
  41        5XZ         0.00087
  42        5YZ         0.00000   0.00064
  43 5   H  1S          0.00003   0.00000   0.21506
  44        2S          0.00010   0.00001   0.09368   0.10418
  45 6   H  1S          0.00089   0.00137   0.00000   0.00034   0.21506
  46        2S          0.00018   0.00016   0.00034   0.00325   0.09368
                          46
  46        2S          0.10418
     Gross orbital populations:
                           1
   1 1   H  1S          0.52762
   2        2S          0.28934
   3 2   C  1S          1.99180
   4        2S          0.70823
   5        2PX         0.76617
   6        2PY         0.68439
   7        2PZ         0.58919
   8        3S          0.59577
   9        3PX         0.21359
  10        3PY         0.33153
  11        3PZ         0.37743
  12        4S          0.00441
  13        4PX         0.01775
  14        4PY         0.02964
  15        4PZ         0.04557
  16        5XX         0.00409
  17        5YY         0.00154
  18        5ZZ        -0.01792
  19        5XY         0.01215
  20        5XZ         0.00706
  21        5YZ         0.00370
  22 3   H  1S          0.52762
  23        2S          0.28934
  24 4   C  1S          1.99180
  25        2S          0.70823
  26        2PX         0.76617
  27        2PY         0.68439
  28        2PZ         0.58919
  29        3S          0.59577
  30        3PX         0.21359
  31        3PY         0.33153
  32        3PZ         0.37743
  33        4S          0.00441
  34        4PX         0.01775
  35        4PY         0.02964
  36        4PZ         0.04557
  37        5XX         0.00409
  38        5YY         0.00154
  39        5ZZ        -0.01792
  40        5XY         0.01215
  41        5XZ         0.00706
  42        5YZ         0.00370
  43 5   H  1S          0.52762
  44        2S          0.28934
  45 6   H  1S          0.52762
  46        2S          0.28934
          Condensed to atoms (all electrons):
              1          2          3          4          5          6
     1  H    0.506604  -0.036205   0.003928   0.382561  -0.006694  -0.033238
     2  C   -0.036205   5.006806   0.382561   0.666570   0.382561  -0.036205
     3  H    0.003928   0.382561   0.506604  -0.036205  -0.033238  -0.006694
     4  C    0.382561   0.666570  -0.036205   5.006806  -0.036205   0.382561
     5  H   -0.006694   0.382561  -0.033238  -0.036205   0.506604   0.003928
     6  H   -0.033238  -0.036205  -0.006694   0.382561   0.003928   0.506604
 Mulliken atomic charges:
              1
     1  H    0.183044
     2  C   -0.366088
     3  H    0.183044
     4  C   -0.366088
     5  H    0.183044
     6  H    0.183044
 Sum of Mulliken atomic charges =   0.00000
 Mulliken charges with hydrogens summed into heavy atoms:
              1
     2  C    0.000000
     4  C    0.000000
 Sum of Mulliken charges with hydrogens summed into heavy atoms =   0.00000
 Electronic spatial extent (au):  <R**2>=           1512.8232
 Charge=              0.0000 electrons
 Dipole moment (field-independent basis, Debye):
    X=              0.0000    Y=              0.0000    Z=              0.0000  Tot=              0.0000
 Quadrupole moment (field-independent basis, Debye-Ang):
   XX=            -12.4310   YY=            -13.3391   ZZ=            -15.2042
   XY=              0.0000   XZ=              0.0000   YZ=              1.6149
 Traceless Quadrupole moment (field-independent basis, Debye-Ang):
   XX=              1.2271   YY=              0.3190   ZZ=             -1.5461
   XY=              0.0000   XZ=              0.0000   YZ=              1.6149
 Octapole moment (field-independent basis, Debye-Ang**2):
  XXX=              0.0000  YYY=              0.0000  ZZZ=           -228.0634  XYY=              0.0000
  XXY=              0.0000  XXZ=            -62.1552  XZZ=              0.0000  YZZ=             16.1493
  YYZ=            -66.6957  XYZ=              0.0000
 Hexadecapole moment (field-independent basis, Debye-Ang**3):
 XXXX=            -71.8902 YYYY=            -27.8989 ZZZZ=          -2305.4922 XXXY=              0.0000
 XXXZ=              0.0000 YYYX=              0.0000 YYYZ=             -0.9012 ZZZX=              0.0000
 ZZZY=            119.3849 XXYY=            -14.8914 XXZZ=           -326.9566 YYZZ=           -341.9503
 XXYZ=              1.1163 YYXZ=              0.0000 ZZXY=              0.0000
 N-N= 3.305010012823D+01 E-N=-2.472640368091D+02  KE= 7.767045558012D+01
 Orbital energies and kinetic energies (alpha):
                                 1                 2
   1         O               -10.198708         15.874671
   2         O               -10.197902         15.886917
   3         O                -0.762057          1.528102
   4         O                -0.584479          1.282449
   5         O                -0.472682          0.935691
   6         O                -0.422675          1.269327
   7         O                -0.363218          1.044445
   8         O                -0.275958          1.013626
   9         V                -0.009879          0.964068
  10         V                 0.025016          0.341809
  11         V                 0.032573          0.287591
  12         V                 0.046712          0.318907
  13         V                 0.069549          0.276716
  14         V                 0.086723          0.256574
  15         V                 0.087460          0.276574
  16         V                 0.127518          0.579864
  17         V                 0.156684          0.463472
  18         V                 0.176412          0.805589
  19         V                 0.190395          0.873075
  20         V                 0.243026          0.901171
  21         V                 0.342327          1.163281
  22         V                 0.347547          1.370107
  23         V                 0.579937          1.628923
  24         V                 0.657846          1.825197
  25         V                 0.674690          2.105314
  26         V                 0.719165          2.271289
  27         V                 0.756765          2.806938
  28         V                 0.819617          1.644771
  29         V                 0.899522          2.281422
  30         V                 0.936429          2.781921
  31         V                 0.963236          2.524767
  32         V                 1.002179          2.539113
  33         V                 1.162032          2.270944
  34         V                 1.219690          2.243611
  35         V                 1.447794          2.641587
  36         V                 1.538972          2.655089
  37         V                 1.816520          2.968520
  38         V                 1.885234          3.096124
  39         V                 1.999370          3.473802
  40         V                 2.107684          3.468351
  41         V                 2.291994          3.603283
  42         V                 2.370101          3.596066
  43         V                 2.665016          4.101752
  44         V                 2.700455          4.772239
  45         V                 4.115893         10.136615
  46         V                 4.251463         10.023461
 Total kinetic energy from orbitals= 7.767045558012D+01

 Test job not archived.
 1\1\GINC-N23\SP\RB3LYP\6-31+G(d)\C2H4\SIM_JOBR9774\22-Mar-2018\0\\#b3l
 yp/6-31+g* scf=tight nosymm punch=mo iop(3/33=1) pop=full\\9_11_07\\0,
 1\H,0,1.242623,-0.809566,4.532597\C,0,-0.672749,0.,5.\H,0,-1.242623,0.
 809566,5.467403\C,0,0.672749,0.,5.\H,0,-1.242623,-0.809566,4.532597\H,
 0,1.242623,0.809566,5.467403\\Version=EM64L-G09RevA.01\HF=-78.5929862\
 RMSD=1.149e-09\Dipole=0.,0.,0.\Quadrupole=0.9123202,0.2371642,-1.14948
 44,0.,0.,1.2006631\PG=D02H [C2"(C1.C1),SG(H4)]\\@


 A warm smile is the universal language of kindness.
                             -- William Arthur Ward
 Job cpu time:  0 days  0 hours  0 minutes  6.6 seconds.
 File lengths (MBytes):  RWF=      5 Int=      0 D2E=      0 Chk=      1 Scr=      1
 Normal termination of Gaussian 09 at Thu Mar 22 16:26:05 2018.
