 Entering Gaussian System, Link 0=/home/apps/gaussian_6_9/g09/g09
 Initial command:
 /home/apps/gaussian_6_9/g09/l1.exe /scratch/Gau-28787.inp -scrdir=/scratch/
 Entering Link 1 = /home/apps/gaussian_6_9/g09/l1.exe PID=     28798.
  
 Copyright (c) 1988,1990,1992,1993,1995,1998,2003,2009, Gaussian, Inc.
                  All Rights Reserved.
  
 This is part of the Gaussian(R) 09 program.  It is based on
 the Gaussian(R) 03 system (copyright 2003, Gaussian, Inc.),
 the Gaussian(R) 98 system (copyright 1998, Gaussian, Inc.),
 the Gaussian(R) 94 system (copyright 1995, Gaussian, Inc.),
 the Gaussian 92(TM) system (copyright 1992, Gaussian, Inc.),
 the Gaussian 90(TM) system (copyright 1990, Gaussian, Inc.),
 the Gaussian 88(TM) system (copyright 1988, Gaussian, Inc.),
 the Gaussian 86(TM) system (copyright 1986, Carnegie Mellon
 University), and the Gaussian 82(TM) system (copyright 1983,
 Carnegie Mellon University). Gaussian is a federally registered
 trademark of Gaussian, Inc.
  
 This software contains proprietary and confidential information,
 including trade secrets, belonging to Gaussian, Inc.
  
 This software is provided under written license and may be
 used, copied, transmitted, or stored only in accord with that
 written license.
  
 The following legend is applicable only to US Government
 contracts under FAR:
  
                    RESTRICTED RIGHTS LEGEND
  
 Use, reproduction and disclosure by the US Government is
 subject to restrictions as set forth in subparagraphs (a)
 and (c) of the Commercial Computer Software - Restricted
 Rights clause in FAR 52.227-19.
  
 Gaussian, Inc.
 340 Quinnipiac St., Bldg. 40, Wallingford CT 06492
  
  
 ---------------------------------------------------------------
 Warning -- This program may not be used in any manner that
 competes with the business of Gaussian, Inc. or will provide
 assistance to any competitor of Gaussian, Inc.  The licensee
 of this program is prohibited from giving any competitor of
 Gaussian, Inc. access to this program.  By using this program,
 the user acknowledges that Gaussian, Inc. is engaged in the
 business of creating and licensing software in the field of
 computational chemistry and represents and warrants to the
 licensee that it is not a competitor of Gaussian, Inc. and that
 it will not use this program in any manner prohibited above.
 ---------------------------------------------------------------
  

 Cite this work as:
 Gaussian 09, Revision A.01,
 M. J. Frisch, G. W. Trucks, H. B. Schlegel, G. E. Scuseria, 
 M. A. Robb, J. R. Cheeseman, G. Scalmani, V. Barone, B. Mennucci, 
 G. A. Petersson, H. Nakatsuji, M. Caricato, X. Li, H. P. Hratchian, 
 A. F. Izmaylov, J. Bloino, G. Zheng, J. L. Sonnenberg, M. Hada, 
 M. Ehara, K. Toyota, R. Fukuda, J. Hasegawa, M. Ishida, T. Nakajima, 
 Y. Honda, O. Kitao, H. Nakai, T. Vreven, J. A. Montgomery, Jr., 
 J. E. Peralta, F. Ogliaro, M. Bearpark, J. J. Heyd, E. Brothers, 
 K. N. Kudin, V. N. Staroverov, R. Kobayashi, J. Normand, 
 K. Raghavachari, A. Rendell, J. C. Burant, S. S. Iyengar, J. Tomasi, 
 M. Cossi, N. Rega, J. M. Millam, M. Klene, J. E. Knox, J. B. Cross, 
 V. Bakken, C. Adamo, J. Jaramillo, R. Gomperts, R. E. Stratmann, 
 O. Yazyev, A. J. Austin, R. Cammi, C. Pomelli, J. W. Ochterski, 
 R. L. Martin, K. Morokuma, V. G. Zakrzewski, G. A. Voth, 
 P. Salvador, J. J. Dannenberg, S. Dapprich, A. D. Daniels, 
 O. Farkas, J. B. Foresman, J. V. Ortiz, J. Cioslowski, 
 and D. J. Fox, Gaussian, Inc., Wallingford CT, 2009.
 
 ******************************************
 Gaussian 09:  EM64L-G09RevA.01  8-May-2009
                17-Feb-2018 
 ******************************************
 %nprocshared=2
 Will use up to    2 processors via shared memory.
 %mem=1GB
 --------------------------------------------------------------
 #ub3lyp/6-31+g* scf=tight nosymm punch=mo iop(3/33=1) pop=full
 --------------------------------------------------------------
 1/38=1/1;
 2/12=2,15=1,17=6,18=5,40=1/2;
 3/5=1,6=6,7=11,11=2,16=1,25=1,30=1,33=1,74=-5,116=2/1,2,3;
 4//1;
 5/5=2,32=2,38=5/2;
 6/7=3,28=1/1;
 99/5=1,9=1,10=32/99;
 -------
 9_11_07
 -------
 Symbolic Z-matrix:
 Charge =  0 Multiplicity = 1
 C                     0.67275   0.        0. 
 C                    -0.67275   0.        0. 
 H                     1.24262   0.93481   0. 
 H                     1.24262  -0.93481   0. 
 H                    -1.24262   0.93481   0. 
 H                    -1.24262  -0.93481   0. 
 
                          Input orientation:                          
 ---------------------------------------------------------------------
 Center     Atomic      Atomic             Coordinates (Angstroms)
 Number     Number       Type             X           Y           Z
 ---------------------------------------------------------------------
      1          6           0        0.672749    0.000000    0.000000
      2          6           0       -0.672749    0.000000    0.000000
      3          1           0        1.242623    0.934806    0.000000
      4          1           0        1.242623   -0.934806    0.000000
      5          1           0       -1.242623    0.934806    0.000000
      6          1           0       -1.242623   -0.934806    0.000000
 ---------------------------------------------------------------------
                    Distance matrix (angstroms):
                    1          2          3          4          5
     1  C    0.000000
     2  C    1.345498   0.000000
     3  H    1.094814   2.131317   0.000000
     4  H    1.094814   2.131317   1.869612   0.000000
     5  H    2.131317   1.094814   2.485246   3.109967   0.000000
     6  H    2.131317   1.094814   3.109967   2.485246   1.869612
                    6
     6  H    0.000000
 Symmetry turned off by external request.
 Stoichiometry    C2H4
 Framework group  D2H[C2"(C.C),SG(H4)]
 Deg. of freedom     3
 Full point group                 D2H     NOp   8
 Rotational constants (GHZ):    143.4594228     29.5768688     24.5213330
 Standard basis: 6-31+G(d) (6D, 7F)
                         Coordinates in L301:                         
 ---------------------------------------------------------------------
 Center     Atomic      Atomic             Coordinates (Angstroms)
 Number     Number       Type             X           Y           Z
 ---------------------------------------------------------------------
      1          6           0        0.672749    0.000000    0.000000
      2          6           0       -0.672749    0.000000    0.000000
      3          1           0        1.242623    0.934806    0.000000
      4          1           0        1.242623   -0.934806    0.000000
      5          1           0       -1.242623    0.934806    0.000000
      6          1           0       -1.242623   -0.934806    0.000000
 ---------------------------------------------------------------------
 FixB: optimizing general contractions.
 Ernie: Thresh=  0.10000D-02 Tol=  0.10000D-05 Strict=F.
 IA=     1 NL=   1 NS=   0.
 IA=     1 L=0 SC=0 ISt=    0 NBk=    0 NP=    0 IndPr=    0.
 IA=     1 NL=   3 NS=   2.
 IA=     1 L=1 SC=0 ISt=    0 NBk=    0 NP=    0 IndPr=    0.
 IA=     1 NL=   1 NS=   1.
 IA=     1 L=2 SC=2 ISt=    0 NBk=    0 NP=    0 IndPr=    0.
 IA=     2 NL=   1 NS=   0.
 IA=     2 L=0 SC=0 ISt=    0 NBk=    0 NP=    0 IndPr=    0.
 IA=     2 NL=   3 NS=   2.
 IA=     2 L=1 SC=0 ISt=    0 NBk=    0 NP=    0 IndPr=    0.
 IA=     2 NL=   1 NS=   1.
 IA=     2 L=2 SC=2 ISt=    0 NBk=    0 NP=    0 IndPr=    0.
 IA=     3 NL=   2 NS=   1.
 IA=     3 L=0 SC=0 ISt=    0 NBk=    0 NP=    0 IndPr=    0.
 IA=     4 NL=   2 NS=   1.
 IA=     4 L=0 SC=0 ISt=    0 NBk=    0 NP=    0 IndPr=    0.
 IA=     5 NL=   2 NS=   1.
 IA=     5 L=0 SC=0 ISt=    0 NBk=    0 NP=    0 IndPr=    0.
 IA=     6 NL=   2 NS=   1.
 IA=     6 L=0 SC=0 ISt=    0 NBk=    0 NP=    0 IndPr=    0.
 LdAtmC:  AtmChg=     6.000000     6.000000     1.000000     1.000000     1.000000
 LdAtmC:  AtmChg=     1.000000
 AtZEff=     -3.6000000     -3.6000000     -1.0000000     -1.0000000     -1.0000000
 AtZEff=     -1.0000000
 Integral buffers will be    131072 words long.
 Raffenetti 2 integral format.
 Two-electron integral symmetry is turned off.
    46 basis functions,    80 primitive gaussians,    46 cartesian basis functions
     8 alpha electrons        8 beta electrons
       nuclear repulsion energy        33.0501025730 Hartrees.
 NAtoms=    6 NActive=    6 NUniq=    6 SFac= 7.50D-01 NAtFMM=   80 NAOKFM=F Big=F
 NPDir=0 NMtPBC=     1 NCelOv=     1 NCel=       1 NClECP=     1 NCelD=      1
         NCelK=      1 NCelE2=     1 NClLst=     1 CellRange=     0.0.
 One-electron integrals computed using PRISM.
 Entering OneElI...
 Calculate overlap and kinetic energy integrals
    NBasis =  46  MinDer = 0  MaxDer = 0
 Requested accuracy = 0.1000D-12
 PrsmSu:  NPrtUS=   2 ThrOK=T IAlg=1
 PRISM was handed    67093240 working-precision words and   171 shell-pairs
 PRISM was handed    67093240 working-precision words and   171 shell-pairs
 IPart=  0 NShTot=          87 NBatch=          25 AvBLen=         3.5
 IPart=  1 NShTot=          84 NBatch=          24 AvBLen=         3.5
 *** Overlap *** 
                1             2             3             4             5 
      1  0.100000D+01
      2  0.219059D+00  0.100000D+01
      3  0.000000D+00  0.000000D+00  0.100000D+01
      4  0.000000D+00  0.000000D+00  0.000000D+00  0.100000D+01
      5  0.000000D+00  0.000000D+00  0.000000D+00  0.000000D+00  0.100000D+01
      6  0.184261D+00  0.812273D+00  0.000000D+00  0.000000D+00  0.000000D+00
      7  0.000000D+00  0.000000D+00  0.569754D+00  0.000000D+00  0.000000D+00
      8  0.000000D+00  0.000000D+00  0.000000D+00  0.569754D+00  0.000000D+00
      9  0.000000D+00  0.000000D+00  0.000000D+00  0.000000D+00  0.569754D+00
     10  0.697718D-01  0.402091D+00  0.000000D+00  0.000000D+00  0.000000D+00
     11  0.000000D+00  0.000000D+00  0.164679D+00  0.000000D+00  0.000000D+00
     12  0.000000D+00  0.000000D+00  0.000000D+00  0.164679D+00  0.000000D+00
     13  0.000000D+00  0.000000D+00  0.000000D+00  0.000000D+00  0.164679D+00
     14  0.791027D-01  0.710235D+00  0.000000D+00  0.000000D+00  0.000000D+00
     15  0.791027D-01  0.710235D+00  0.000000D+00  0.000000D+00  0.000000D+00
     16  0.791027D-01  0.710235D+00  0.000000D+00  0.000000D+00  0.000000D+00
     17  0.000000D+00  0.000000D+00  0.000000D+00  0.000000D+00  0.000000D+00
     18  0.000000D+00  0.000000D+00  0.000000D+00  0.000000D+00  0.000000D+00
     19  0.000000D+00  0.000000D+00  0.000000D+00  0.000000D+00  0.000000D+00
     20  0.481399D-05  0.194904D-01 -0.426713D-01  0.000000D+00  0.000000D+00
     21  0.194904D-01  0.203366D+00 -0.282219D+00  0.000000D+00  0.000000D+00
     22  0.426713D-01  0.282219D+00 -0.333594D+00  0.000000D+00  0.000000D+00
     23  0.000000D+00  0.000000D+00  0.000000D+00  0.115814D+00  0.000000D+00
     24  0.000000D+00  0.000000D+00  0.000000D+00  0.000000D+00  0.115814D+00
     25  0.643636D-01  0.359351D+00 -0.253511D+00  0.000000D+00  0.000000D+00
     26  0.129620D+00  0.562375D+00 -0.170740D+00  0.000000D+00  0.000000D+00
     27  0.000000D+00  0.000000D+00  0.000000D+00  0.242739D+00  0.000000D+00
     28  0.000000D+00  0.000000D+00  0.000000D+00  0.000000D+00  0.242739D+00
     29  0.527094D-01  0.309785D+00 -0.673317D-01  0.000000D+00  0.000000D+00
     30  0.555561D-01  0.303665D+00  0.598522D-01  0.000000D+00  0.000000D+00
     31  0.000000D+00  0.000000D+00  0.000000D+00  0.126532D+00  0.000000D+00
     32  0.000000D+00  0.000000D+00  0.000000D+00  0.000000D+00  0.126532D+00
     33  0.526767D-01  0.334402D+00 -0.413876D+00  0.000000D+00  0.000000D+00
     34  0.113280D-02  0.928256D-01 -0.142160D+00  0.000000D+00  0.000000D+00
     35  0.113280D-02  0.928256D-01 -0.142160D+00  0.000000D+00  0.000000D+00
     36  0.000000D+00  0.000000D+00  0.000000D+00  0.183392D+00  0.000000D+00
     37  0.000000D+00  0.000000D+00  0.000000D+00  0.000000D+00  0.183392D+00
     38  0.000000D+00  0.000000D+00  0.000000D+00  0.000000D+00  0.000000D+00
     39  0.320525D-01  0.270664D+00  0.190665D+00  0.312763D+00  0.000000D+00
     40  0.916644D-01  0.473962D+00  0.138279D+00  0.226830D+00  0.000000D+00
     41  0.320525D-01  0.270664D+00  0.190665D+00 -0.312763D+00  0.000000D+00
     42  0.916644D-01  0.473962D+00  0.138279D+00 -0.226830D+00  0.000000D+00
     43  0.430533D-04  0.789566D-02 -0.152645D-01  0.744992D-02  0.000000D+00
     44  0.142782D-01  0.109874D+00 -0.102096D+00  0.498287D-01  0.000000D+00
     45  0.430533D-04  0.789566D-02 -0.152645D-01 -0.744992D-02  0.000000D+00
     46  0.142782D-01  0.109874D+00 -0.102096D+00 -0.498287D-01  0.000000D+00
                6             7             8             9            10 
      6  0.100000D+01
      7  0.000000D+00  0.100000D+01
      8  0.000000D+00  0.000000D+00  0.100000D+01
      9  0.000000D+00  0.000000D+00  0.000000D+00  0.100000D+01
     10  0.727666D+00  0.000000D+00  0.000000D+00  0.000000D+00  0.100000D+01
     11  0.000000D+00  0.588690D+00  0.000000D+00  0.000000D+00  0.000000D+00
     12  0.000000D+00  0.000000D+00  0.588690D+00  0.000000D+00  0.000000D+00
     13  0.000000D+00  0.000000D+00  0.000000D+00  0.588690D+00  0.000000D+00
     14  0.629936D+00  0.000000D+00  0.000000D+00  0.000000D+00  0.323540D+00
     15  0.629936D+00  0.000000D+00  0.000000D+00  0.000000D+00  0.323540D+00
     16  0.629936D+00  0.000000D+00  0.000000D+00  0.000000D+00  0.323540D+00
     17  0.000000D+00  0.000000D+00  0.000000D+00  0.000000D+00  0.000000D+00
     18  0.000000D+00  0.000000D+00  0.000000D+00  0.000000D+00  0.000000D+00
     19  0.000000D+00  0.000000D+00  0.000000D+00  0.000000D+00  0.000000D+00
     20  0.643636D-01 -0.129620D+00  0.000000D+00  0.000000D+00  0.527094D-01
     21  0.359351D+00 -0.562375D+00  0.000000D+00  0.000000D+00  0.309785D+00
     22  0.253511D+00 -0.170740D+00  0.000000D+00  0.000000D+00  0.673317D-01
     23  0.000000D+00  0.000000D+00  0.242739D+00  0.000000D+00  0.000000D+00
     24  0.000000D+00  0.000000D+00  0.000000D+00  0.242739D+00  0.000000D+00
     25  0.579631D+00 -0.605354D+00  0.000000D+00  0.000000D+00  0.581168D+00
     26  0.605354D+00 -0.525884D-01  0.000000D+00  0.000000D+00  0.250193D+00
     27  0.000000D+00  0.000000D+00  0.579631D+00  0.000000D+00  0.000000D+00
     28  0.000000D+00  0.000000D+00  0.000000D+00  0.579631D+00  0.000000D+00
     29  0.581168D+00 -0.250193D+00  0.000000D+00  0.000000D+00  0.867984D+00
     30  0.491037D+00  0.258780D+00  0.000000D+00  0.000000D+00  0.461882D+00
     31  0.000000D+00  0.000000D+00  0.470171D+00  0.000000D+00  0.000000D+00
     32  0.000000D+00  0.000000D+00  0.000000D+00  0.470171D+00  0.000000D+00
     33  0.353148D+00 -0.422973D+00  0.000000D+00  0.000000D+00  0.254635D+00
     34  0.255918D+00 -0.441451D+00  0.000000D+00  0.000000D+00  0.247363D+00
     35  0.255918D+00 -0.441451D+00  0.000000D+00  0.000000D+00  0.247363D+00
     36  0.000000D+00  0.000000D+00  0.161252D+00  0.000000D+00  0.000000D+00
     37  0.000000D+00  0.000000D+00  0.000000D+00  0.161252D+00  0.000000D+00
     38  0.000000D+00  0.000000D+00  0.000000D+00  0.000000D+00  0.000000D+00
     39  0.375116D+00  0.267879D+00  0.439422D+00  0.000000D+00  0.258482D+00
     40  0.702351D+00  0.303675D+00  0.498140D+00  0.000000D+00  0.640357D+00
     41  0.375116D+00  0.267879D+00 -0.439422D+00  0.000000D+00  0.258482D+00
     42  0.702351D+00  0.303675D+00 -0.498140D+00  0.000000D+00  0.640357D+00
     43  0.740737D-01 -0.176934D+00  0.863532D-01  0.000000D+00  0.158045D+00
     44  0.262382D+00 -0.381297D+00  0.186094D+00  0.000000D+00  0.424412D+00
     45  0.740737D-01 -0.176934D+00 -0.863532D-01  0.000000D+00  0.158045D+00
     46  0.262382D+00 -0.381297D+00 -0.186094D+00  0.000000D+00  0.424412D+00
               11            12            13            14            15 
     11  0.100000D+01
     12  0.000000D+00  0.100000D+01
     13  0.000000D+00  0.000000D+00  0.100000D+01
     14  0.000000D+00  0.000000D+00  0.000000D+00  0.100000D+01
     15  0.000000D+00  0.000000D+00  0.000000D+00  0.333333D+00  0.100000D+01
     16  0.000000D+00  0.000000D+00  0.000000D+00  0.333333D+00  0.333333D+00
     17  0.000000D+00  0.000000D+00  0.000000D+00  0.000000D+00  0.000000D+00
     18  0.000000D+00  0.000000D+00  0.000000D+00  0.000000D+00  0.000000D+00
     19  0.000000D+00  0.000000D+00  0.000000D+00  0.000000D+00  0.000000D+00
     20 -0.555561D-01  0.000000D+00  0.000000D+00  0.526767D-01  0.113280D-02
     21 -0.303665D+00  0.000000D+00  0.000000D+00  0.334402D+00  0.928256D-01
     22  0.598522D-01  0.000000D+00  0.000000D+00  0.413876D+00  0.142160D+00
     23  0.000000D+00  0.126532D+00  0.000000D+00  0.000000D+00  0.000000D+00
     24  0.000000D+00  0.000000D+00  0.126532D+00  0.000000D+00  0.000000D+00
     25 -0.491037D+00  0.000000D+00  0.000000D+00  0.353148D+00  0.255918D+00
     26  0.258780D+00  0.000000D+00  0.000000D+00  0.422973D+00  0.441451D+00
     27  0.000000D+00  0.470171D+00  0.000000D+00  0.000000D+00  0.000000D+00
     28  0.000000D+00  0.000000D+00  0.470171D+00  0.000000D+00  0.000000D+00
     29 -0.461882D+00  0.000000D+00  0.000000D+00  0.254635D+00  0.247363D+00
     30  0.622202D+00  0.000000D+00  0.000000D+00  0.229601D+00  0.249594D+00
     31  0.000000D+00  0.867984D+00  0.000000D+00  0.000000D+00  0.000000D+00
     32  0.000000D+00  0.000000D+00  0.867984D+00  0.000000D+00  0.000000D+00
     33 -0.229601D+00  0.000000D+00  0.000000D+00  0.487216D+00  0.154963D+00
     34 -0.249594D+00  0.000000D+00  0.000000D+00  0.154963D+00  0.753228D-01
     35 -0.249594D+00  0.000000D+00  0.000000D+00  0.154963D+00  0.251076D-01
     36  0.000000D+00  0.236690D-01  0.000000D+00  0.000000D+00  0.000000D+00
     37  0.000000D+00  0.000000D+00  0.236690D-01  0.000000D+00  0.000000D+00
     38  0.000000D+00  0.000000D+00  0.000000D+00  0.000000D+00  0.000000D+00
     39  0.109596D+00  0.179778D+00  0.000000D+00  0.207129D+00  0.361177D+00
     40  0.226998D+00  0.372362D+00  0.000000D+00  0.371459D+00  0.408549D+00
     41  0.109596D+00 -0.179778D+00  0.000000D+00  0.207129D+00  0.361177D+00
     42  0.226998D+00 -0.372362D+00  0.000000D+00  0.371459D+00  0.408549D+00
     43 -0.225200D+00  0.109910D+00  0.000000D+00  0.137730D-01  0.451326D-02
     44 -0.505665D+00  0.246792D+00  0.000000D+00  0.120267D+00  0.822582D-01
     45 -0.225200D+00 -0.109910D+00  0.000000D+00  0.137730D-01  0.451326D-02
     46 -0.505665D+00 -0.246792D+00  0.000000D+00  0.120267D+00  0.822582D-01
               16            17            18            19            20 
     16  0.100000D+01
     17  0.000000D+00  0.100000D+01
     18  0.000000D+00  0.000000D+00  0.100000D+01
     19  0.000000D+00  0.000000D+00  0.000000D+00  0.100000D+01
     20  0.113280D-02  0.000000D+00  0.000000D+00  0.000000D+00  0.100000D+01
     21  0.928256D-01  0.000000D+00  0.000000D+00  0.000000D+00  0.219059D+00
     22  0.142160D+00  0.000000D+00  0.000000D+00  0.000000D+00  0.000000D+00
     23  0.000000D+00 -0.183392D+00  0.000000D+00  0.000000D+00  0.000000D+00
     24  0.000000D+00  0.000000D+00 -0.183392D+00  0.000000D+00  0.000000D+00
     25  0.255918D+00  0.000000D+00  0.000000D+00  0.000000D+00  0.184261D+00
     26  0.441451D+00  0.000000D+00  0.000000D+00  0.000000D+00  0.000000D+00
     27  0.000000D+00 -0.161252D+00  0.000000D+00  0.000000D+00  0.000000D+00
     28  0.000000D+00  0.000000D+00 -0.161252D+00  0.000000D+00  0.000000D+00
     29  0.247363D+00  0.000000D+00  0.000000D+00  0.000000D+00  0.697718D-01
     30  0.249594D+00  0.000000D+00  0.000000D+00  0.000000D+00  0.000000D+00
     31  0.000000D+00 -0.236690D-01  0.000000D+00  0.000000D+00  0.000000D+00
     32  0.000000D+00  0.000000D+00 -0.236690D-01  0.000000D+00  0.000000D+00
     33  0.154963D+00  0.000000D+00  0.000000D+00  0.000000D+00  0.791027D-01
     34  0.251076D-01  0.000000D+00  0.000000D+00  0.000000D+00  0.791027D-01
     35  0.753228D-01  0.000000D+00  0.000000D+00  0.000000D+00  0.791027D-01
     36  0.000000D+00 -0.314243D+00  0.000000D+00  0.000000D+00  0.000000D+00
     37  0.000000D+00  0.000000D+00 -0.314243D+00  0.000000D+00  0.000000D+00
     38  0.000000D+00  0.000000D+00  0.000000D+00  0.753228D-01  0.000000D+00
     39  0.116021D+00  0.258857D+00  0.000000D+00  0.000000D+00  0.430533D-04
     40  0.349523D+00  0.623253D-01  0.000000D+00  0.000000D+00  0.142782D-01
     41  0.116021D+00 -0.258857D+00  0.000000D+00  0.000000D+00  0.430533D-04
     42  0.349523D+00 -0.623253D-01  0.000000D+00  0.000000D+00  0.142782D-01
     43  0.161797D-02 -0.102751D-01  0.000000D+00  0.000000D+00  0.320525D-01
     44  0.703737D-01 -0.421768D-01  0.000000D+00  0.000000D+00  0.916644D-01
     45  0.161797D-02  0.102751D-01  0.000000D+00  0.000000D+00  0.320525D-01
     46  0.703737D-01  0.421768D-01  0.000000D+00  0.000000D+00  0.916644D-01
               21            22            23            24            25 
     21  0.100000D+01
     22  0.000000D+00  0.100000D+01
     23  0.000000D+00  0.000000D+00  0.100000D+01
     24  0.000000D+00  0.000000D+00  0.000000D+00  0.100000D+01
     25  0.812273D+00  0.000000D+00  0.000000D+00  0.000000D+00  0.100000D+01
     26  0.000000D+00  0.569754D+00  0.000000D+00  0.000000D+00  0.000000D+00
     27  0.000000D+00  0.000000D+00  0.569754D+00  0.000000D+00  0.000000D+00
     28  0.000000D+00  0.000000D+00  0.000000D+00  0.569754D+00  0.000000D+00
     29  0.402091D+00  0.000000D+00  0.000000D+00  0.000000D+00  0.727666D+00
     30  0.000000D+00  0.164679D+00  0.000000D+00  0.000000D+00  0.000000D+00
     31  0.000000D+00  0.000000D+00  0.164679D+00  0.000000D+00  0.000000D+00
     32  0.000000D+00  0.000000D+00  0.000000D+00  0.164679D+00  0.000000D+00
     33  0.710235D+00  0.000000D+00  0.000000D+00  0.000000D+00  0.629936D+00
     34  0.710235D+00  0.000000D+00  0.000000D+00  0.000000D+00  0.629936D+00
     35  0.710235D+00  0.000000D+00  0.000000D+00  0.000000D+00  0.629936D+00
     36  0.000000D+00  0.000000D+00  0.000000D+00  0.000000D+00  0.000000D+00
     37  0.000000D+00  0.000000D+00  0.000000D+00  0.000000D+00  0.000000D+00
     38  0.000000D+00  0.000000D+00  0.000000D+00  0.000000D+00  0.000000D+00
     39  0.789566D-02  0.152645D-01  0.744992D-02  0.000000D+00  0.740737D-01
     40  0.109874D+00  0.102096D+00  0.498287D-01  0.000000D+00  0.262382D+00
     41  0.789566D-02  0.152645D-01 -0.744992D-02  0.000000D+00  0.740737D-01
     42  0.109874D+00  0.102096D+00 -0.498287D-01  0.000000D+00  0.262382D+00
     43  0.270664D+00 -0.190665D+00  0.312763D+00  0.000000D+00  0.375116D+00
     44  0.473962D+00 -0.138279D+00  0.226830D+00  0.000000D+00  0.702351D+00
     45  0.270664D+00 -0.190665D+00 -0.312763D+00  0.000000D+00  0.375116D+00
     46  0.473962D+00 -0.138279D+00 -0.226830D+00  0.000000D+00  0.702351D+00
               26            27            28            29            30 
     26  0.100000D+01
     27  0.000000D+00  0.100000D+01
     28  0.000000D+00  0.000000D+00  0.100000D+01
     29  0.000000D+00  0.000000D+00  0.000000D+00  0.100000D+01
     30  0.588690D+00  0.000000D+00  0.000000D+00  0.000000D+00  0.100000D+01
     31  0.000000D+00  0.588690D+00  0.000000D+00  0.000000D+00  0.000000D+00
     32  0.000000D+00  0.000000D+00  0.588690D+00  0.000000D+00  0.000000D+00
     33  0.000000D+00  0.000000D+00  0.000000D+00  0.323540D+00  0.000000D+00
     34  0.000000D+00  0.000000D+00  0.000000D+00  0.323540D+00  0.000000D+00
     35  0.000000D+00  0.000000D+00  0.000000D+00  0.323540D+00  0.000000D+00
     36  0.000000D+00  0.000000D+00  0.000000D+00  0.000000D+00  0.000000D+00
     37  0.000000D+00  0.000000D+00  0.000000D+00  0.000000D+00  0.000000D+00
     38  0.000000D+00  0.000000D+00  0.000000D+00  0.000000D+00  0.000000D+00
     39  0.176934D+00  0.863532D-01  0.000000D+00  0.158045D+00  0.225200D+00
     40  0.381297D+00  0.186094D+00  0.000000D+00  0.424412D+00  0.505665D+00
     41  0.176934D+00 -0.863532D-01  0.000000D+00  0.158045D+00  0.225200D+00
     42  0.381297D+00 -0.186094D+00  0.000000D+00  0.424412D+00  0.505665D+00
     43 -0.267879D+00  0.439422D+00  0.000000D+00  0.258482D+00 -0.109596D+00
     44 -0.303675D+00  0.498140D+00  0.000000D+00  0.640357D+00 -0.226998D+00
     45 -0.267879D+00 -0.439422D+00  0.000000D+00  0.258482D+00 -0.109596D+00
     46 -0.303675D+00 -0.498140D+00  0.000000D+00  0.640357D+00 -0.226998D+00
               31            32            33            34            35 
     31  0.100000D+01
     32  0.000000D+00  0.100000D+01
     33  0.000000D+00  0.000000D+00  0.100000D+01
     34  0.000000D+00  0.000000D+00  0.333333D+00  0.100000D+01
     35  0.000000D+00  0.000000D+00  0.333333D+00  0.333333D+00  0.100000D+01
     36  0.000000D+00  0.000000D+00  0.000000D+00  0.000000D+00  0.000000D+00
     37  0.000000D+00  0.000000D+00  0.000000D+00  0.000000D+00  0.000000D+00
     38  0.000000D+00  0.000000D+00  0.000000D+00  0.000000D+00  0.000000D+00
     39  0.109910D+00  0.000000D+00  0.137730D-01  0.451326D-02  0.161797D-02
     40  0.246792D+00  0.000000D+00  0.120267D+00  0.822582D-01  0.703737D-01
     41 -0.109910D+00  0.000000D+00  0.137730D-01  0.451326D-02  0.161797D-02
     42 -0.246792D+00  0.000000D+00  0.120267D+00  0.822582D-01  0.703737D-01
     43  0.179778D+00  0.000000D+00  0.207129D+00  0.361177D+00  0.116021D+00
     44  0.372362D+00  0.000000D+00  0.371459D+00  0.408549D+00  0.349523D+00
     45 -0.179778D+00  0.000000D+00  0.207129D+00  0.361177D+00  0.116021D+00
     46 -0.372362D+00  0.000000D+00  0.371459D+00  0.408549D+00  0.349523D+00
               36            37            38            39            40 
     36  0.100000D+01
     37  0.000000D+00  0.100000D+01
     38  0.000000D+00  0.000000D+00  0.100000D+01
     39  0.102751D-01  0.000000D+00  0.000000D+00  0.100000D+01
     40  0.421768D-01  0.000000D+00  0.000000D+00  0.658292D+00  0.100000D+01
     41 -0.102751D-01  0.000000D+00  0.000000D+00  0.125798D-01  0.128011D+00
     42 -0.421768D-01  0.000000D+00  0.000000D+00  0.128011D+00  0.365469D+00
     43 -0.258857D+00  0.000000D+00  0.000000D+00  0.571644D-03  0.366357D-01
     44 -0.623253D-01  0.000000D+00  0.000000D+00  0.366357D-01  0.168873D+00
     45  0.258857D+00  0.000000D+00  0.000000D+00  0.104764D-04  0.720595D-02
     46  0.623253D-01  0.000000D+00  0.000000D+00  0.720595D-02  0.617177D-01
               41            42            43            44            45 
     41  0.100000D+01
     42  0.658292D+00  0.100000D+01
     43  0.104764D-04  0.720595D-02  0.100000D+01
     44  0.720595D-02  0.617177D-01  0.658292D+00  0.100000D+01
     45  0.571644D-03  0.366357D-01  0.125798D-01  0.128011D+00  0.100000D+01
     46  0.366357D-01  0.168873D+00  0.128011D+00  0.365469D+00  0.658292D+00
               46 
     46  0.100000D+01
 *** Kinetic Energy *** 
                1             2             3             4             5 
      1  0.162076D+02
      2 -0.124757D+01  0.932246D+00
      3  0.000000D+00  0.000000D+00  0.217833D+01
      4  0.000000D+00  0.000000D+00  0.000000D+00  0.217833D+01
      5  0.000000D+00  0.000000D+00  0.000000D+00  0.000000D+00  0.217833D+01
      6  0.899505D-01  0.306718D+00  0.000000D+00  0.000000D+00  0.000000D+00
      7  0.000000D+00  0.000000D+00  0.376673D+00  0.000000D+00  0.000000D+00
      8  0.000000D+00  0.000000D+00  0.000000D+00  0.376673D+00  0.000000D+00
      9  0.000000D+00  0.000000D+00  0.000000D+00  0.000000D+00  0.376673D+00
     10  0.907972D-02  0.486595D-01  0.000000D+00  0.000000D+00  0.000000D+00
     11  0.000000D+00  0.000000D+00  0.335613D-01  0.000000D+00  0.000000D+00
     12  0.000000D+00  0.000000D+00  0.000000D+00  0.335613D-01  0.000000D+00
     13  0.000000D+00  0.000000D+00  0.000000D+00  0.000000D+00  0.335613D-01
     14 -0.524817D+00  0.520042D+00  0.000000D+00  0.000000D+00  0.000000D+00
     15 -0.524817D+00  0.520042D+00  0.000000D+00  0.000000D+00  0.000000D+00
     16 -0.524817D+00  0.520042D+00  0.000000D+00  0.000000D+00  0.000000D+00
     17  0.000000D+00  0.000000D+00  0.000000D+00  0.000000D+00  0.000000D+00
     18  0.000000D+00  0.000000D+00  0.000000D+00  0.000000D+00  0.000000D+00
     19  0.000000D+00  0.000000D+00  0.000000D+00  0.000000D+00  0.000000D+00
     20 -0.135413D-03 -0.305582D-01  0.301757D-01  0.000000D+00  0.000000D+00
     21 -0.305582D-01 -0.692999D-02 -0.114122D+00  0.000000D+00  0.000000D+00
     22 -0.301757D-01  0.114122D+00 -0.341734D+00  0.000000D+00  0.000000D+00
     23  0.000000D+00  0.000000D+00  0.000000D+00  0.325781D-01  0.000000D+00
     24  0.000000D+00  0.000000D+00  0.000000D+00  0.000000D+00  0.325781D-01
     25  0.938145D-02  0.623760D-01 -0.109871D+00  0.000000D+00  0.000000D+00
     26  0.610677D-01  0.239367D+00 -0.183669D+00  0.000000D+00  0.000000D+00
     27  0.000000D+00  0.000000D+00  0.000000D+00  0.105202D+00  0.000000D+00
     28  0.000000D+00  0.000000D+00  0.000000D+00  0.000000D+00  0.105202D+00
     29  0.557685D-02  0.309754D-01 -0.122746D-01  0.000000D+00  0.000000D+00
     30  0.106981D-01  0.548491D-01  0.547132D-02  0.000000D+00  0.000000D+00
     31  0.000000D+00  0.000000D+00  0.000000D+00  0.230668D-01  0.000000D+00
     32  0.000000D+00  0.000000D+00  0.000000D+00  0.000000D+00  0.230668D-01
     33 -0.759879D-01  0.185459D+00 -0.484409D+00  0.000000D+00  0.000000D+00
     34 -0.120047D-01 -0.702841D-01  0.455959D-01  0.000000D+00  0.000000D+00
     35 -0.120047D-01 -0.702841D-01  0.455959D-01  0.000000D+00  0.000000D+00
     36  0.000000D+00  0.000000D+00  0.000000D+00  0.142615D+00  0.000000D+00
     37  0.000000D+00  0.000000D+00  0.000000D+00  0.000000D+00  0.142615D+00
     38  0.000000D+00  0.000000D+00  0.000000D+00  0.000000D+00  0.000000D+00
     39 -0.348075D-01  0.397960D-01  0.121108D+00  0.198663D+00  0.000000D+00
     40  0.237890D-01  0.113380D+00  0.687448D-01  0.112767D+00  0.000000D+00
     41 -0.348075D-01  0.397960D-01  0.121108D+00 -0.198663D+00  0.000000D+00
     42  0.237890D-01  0.113380D+00  0.687448D-01 -0.112767D+00  0.000000D+00
     43 -0.349041D-03 -0.153574D-01  0.222209D-01 -0.108450D-01  0.000000D+00
     44 -0.456069D-02 -0.130735D-01 -0.113744D-01  0.555132D-02  0.000000D+00
     45 -0.349041D-03 -0.153574D-01  0.222209D-01  0.108450D-01  0.000000D+00
     46 -0.456069D-02 -0.130735D-01 -0.113744D-01 -0.555132D-02  0.000000D+00
                6             7             8             9            10 
      6  0.253072D+00
      7  0.000000D+00  0.421786D+00
      8  0.000000D+00  0.000000D+00  0.421786D+00
      9  0.000000D+00  0.000000D+00  0.000000D+00  0.421786D+00
     10  0.759086D-01  0.000000D+00  0.000000D+00  0.000000D+00  0.657000D-01
     11  0.000000D+00  0.102352D+00  0.000000D+00  0.000000D+00  0.000000D+00
     12  0.000000D+00  0.000000D+00  0.102352D+00  0.000000D+00  0.000000D+00
     13  0.000000D+00  0.000000D+00  0.000000D+00  0.102352D+00  0.000000D+00
     14  0.226288D+00  0.000000D+00  0.000000D+00  0.000000D+00  0.388353D-01
     15  0.226288D+00  0.000000D+00  0.000000D+00  0.000000D+00  0.388353D-01
     16  0.226288D+00  0.000000D+00  0.000000D+00  0.000000D+00  0.388353D-01
     17  0.000000D+00  0.000000D+00  0.000000D+00  0.000000D+00  0.000000D+00
     18  0.000000D+00  0.000000D+00  0.000000D+00  0.000000D+00  0.000000D+00
     19  0.000000D+00  0.000000D+00  0.000000D+00  0.000000D+00  0.000000D+00
     20  0.938145D-02 -0.610677D-01  0.000000D+00  0.000000D+00  0.557685D-02
     21  0.623760D-01 -0.239367D+00  0.000000D+00  0.000000D+00  0.309754D-01
     22  0.109871D+00 -0.183669D+00  0.000000D+00  0.000000D+00  0.122746D-01
     23  0.000000D+00  0.000000D+00  0.105202D+00  0.000000D+00  0.000000D+00
     24  0.000000D+00  0.000000D+00  0.000000D+00  0.105202D+00  0.000000D+00
     25  0.933559D-01 -0.199631D+00  0.000000D+00  0.000000D+00  0.515403D-01
     26  0.199631D+00 -0.124007D+00  0.000000D+00  0.000000D+00  0.395879D-01
     27  0.000000D+00  0.000000D+00  0.191148D+00  0.000000D+00  0.000000D+00
     28  0.000000D+00  0.000000D+00  0.000000D+00  0.191148D+00  0.000000D+00
     29  0.515403D-01 -0.395879D-01  0.000000D+00  0.000000D+00  0.516439D-01
     30  0.776965D-01  0.262452D-01  0.000000D+00  0.000000D+00  0.477118D-01
     31  0.000000D+00  0.000000D+00  0.743949D-01  0.000000D+00  0.000000D+00
     32  0.000000D+00  0.000000D+00  0.000000D+00  0.743949D-01  0.000000D+00
     33  0.981193D-01 -0.204141D+00  0.000000D+00  0.000000D+00  0.261278D-01
     34  0.276945D-01 -0.170788D+00  0.000000D+00  0.000000D+00  0.241761D-01
     35  0.276945D-01 -0.170788D+00  0.000000D+00  0.000000D+00  0.241761D-01
     36  0.000000D+00  0.000000D+00  0.116796D+00  0.000000D+00  0.000000D+00
     37  0.000000D+00  0.000000D+00  0.000000D+00  0.116796D+00  0.000000D+00
     38  0.000000D+00  0.000000D+00  0.000000D+00  0.000000D+00  0.000000D+00
     39  0.934993D-01  0.140040D+00  0.229717D+00  0.000000D+00  0.281911D-01
     40  0.132860D+00  0.107524D+00  0.176380D+00  0.000000D+00  0.596677D-01
     41  0.934993D-01  0.140040D+00 -0.229717D+00  0.000000D+00  0.281911D-01
     42  0.132860D+00  0.107524D+00 -0.176380D+00  0.000000D+00  0.596677D-01
     43 -0.141416D-01 -0.138972D-01  0.678261D-02  0.000000D+00  0.108285D-01
     44  0.702830D-02 -0.730942D-01  0.356740D-01  0.000000D+00  0.275201D-01
     45 -0.141416D-01 -0.138972D-01 -0.678261D-02  0.000000D+00  0.108285D-01
     46  0.702830D-02 -0.730942D-01 -0.356740D-01  0.000000D+00  0.275201D-01
               11            12            13            14            15 
     11  0.109500D+00
     12  0.000000D+00  0.109500D+00
     13  0.000000D+00  0.000000D+00  0.109500D+00
     14  0.000000D+00  0.000000D+00  0.000000D+00  0.173333D+01
     15  0.000000D+00  0.000000D+00  0.000000D+00 -0.133333D+00  0.173333D+01
     16  0.000000D+00  0.000000D+00  0.000000D+00 -0.133333D+00 -0.133333D+00
     17  0.000000D+00  0.000000D+00  0.000000D+00  0.000000D+00  0.000000D+00
     18  0.000000D+00  0.000000D+00  0.000000D+00  0.000000D+00  0.000000D+00
     19  0.000000D+00  0.000000D+00  0.000000D+00  0.000000D+00  0.000000D+00
     20 -0.106981D-01  0.000000D+00  0.000000D+00 -0.759879D-01 -0.120047D-01
     21 -0.548491D-01  0.000000D+00  0.000000D+00  0.185459D+00 -0.702841D-01
     22  0.547132D-02  0.000000D+00  0.000000D+00  0.484409D+00 -0.455959D-01
     23  0.000000D+00  0.230668D-01  0.000000D+00  0.000000D+00  0.000000D+00
     24  0.000000D+00  0.000000D+00  0.230668D-01  0.000000D+00  0.000000D+00
     25 -0.776965D-01  0.000000D+00  0.000000D+00  0.981193D-01  0.276945D-01
     26  0.262452D-01  0.000000D+00  0.000000D+00  0.204141D+00  0.170788D+00
     27  0.000000D+00  0.743949D-01  0.000000D+00  0.000000D+00  0.000000D+00
     28  0.000000D+00  0.000000D+00  0.743949D-01  0.000000D+00  0.000000D+00
     29 -0.477118D-01  0.000000D+00  0.000000D+00  0.261278D-01  0.241761D-01
     30  0.535074D-01  0.000000D+00  0.000000D+00  0.403672D-01  0.451237D-01
     31  0.000000D+00  0.896616D-01  0.000000D+00  0.000000D+00  0.000000D+00
     32  0.000000D+00  0.000000D+00  0.896616D-01  0.000000D+00  0.000000D+00
     33 -0.403672D-01  0.000000D+00  0.000000D+00  0.727180D+00 -0.709162D-01
     34 -0.451237D-01  0.000000D+00  0.000000D+00 -0.709162D-01 -0.252666D-01
     35 -0.451237D-01  0.000000D+00  0.000000D+00 -0.709162D-01 -0.619851D-01
     36  0.000000D+00  0.635248D-02  0.000000D+00  0.000000D+00  0.000000D+00
     37  0.000000D+00  0.000000D+00  0.635248D-02  0.000000D+00  0.000000D+00
     38  0.000000D+00  0.000000D+00  0.000000D+00  0.000000D+00  0.000000D+00
     39  0.209881D-01  0.344283D-01  0.000000D+00  0.366390D-01  0.242202D+00
     40  0.367895D-01  0.603485D-01  0.000000D+00  0.851469D-01  0.114275D+00
     41  0.209881D-01 -0.344283D-01  0.000000D+00  0.366390D-01  0.242202D+00
     42  0.367895D-01 -0.603485D-01  0.000000D+00  0.851469D-01  0.114275D+00
     43 -0.339886D-01  0.165883D-01  0.000000D+00 -0.261710D-01 -0.106930D-01
     44 -0.676243D-01  0.330043D-01  0.000000D+00  0.111357D-02 -0.123825D-01
     45 -0.339886D-01 -0.165883D-01  0.000000D+00 -0.261710D-01 -0.106930D-01
     46 -0.676243D-01 -0.330043D-01  0.000000D+00  0.111357D-02 -0.123825D-01
               16            17            18            19            20 
     16  0.173333D+01
     17  0.000000D+00  0.280000D+01
     18  0.000000D+00  0.000000D+00  0.280000D+01
     19  0.000000D+00  0.000000D+00  0.000000D+00  0.280000D+01
     20 -0.120047D-01  0.000000D+00  0.000000D+00  0.000000D+00  0.162076D+02
     21 -0.702841D-01  0.000000D+00  0.000000D+00  0.000000D+00 -0.124757D+01
     22 -0.455959D-01  0.000000D+00  0.000000D+00  0.000000D+00  0.000000D+00
     23  0.000000D+00 -0.142615D+00  0.000000D+00  0.000000D+00  0.000000D+00
     24  0.000000D+00  0.000000D+00 -0.142615D+00  0.000000D+00  0.000000D+00
     25  0.276945D-01  0.000000D+00  0.000000D+00  0.000000D+00  0.899505D-01
     26  0.170788D+00  0.000000D+00  0.000000D+00  0.000000D+00  0.000000D+00
     27  0.000000D+00 -0.116796D+00  0.000000D+00  0.000000D+00  0.000000D+00
     28  0.000000D+00  0.000000D+00 -0.116796D+00  0.000000D+00  0.000000D+00
     29  0.241761D-01  0.000000D+00  0.000000D+00  0.000000D+00  0.907972D-02
     30  0.451237D-01  0.000000D+00  0.000000D+00  0.000000D+00  0.000000D+00
     31  0.000000D+00 -0.635248D-02  0.000000D+00  0.000000D+00  0.000000D+00
     32  0.000000D+00  0.000000D+00 -0.635248D-02  0.000000D+00  0.000000D+00
     33 -0.709162D-01  0.000000D+00  0.000000D+00  0.000000D+00 -0.524817D+00
     34 -0.619851D-01  0.000000D+00  0.000000D+00  0.000000D+00 -0.524817D+00
     35 -0.252666D-01  0.000000D+00  0.000000D+00  0.000000D+00 -0.524817D+00
     36  0.000000D+00 -0.541434D+00  0.000000D+00  0.000000D+00  0.000000D+00
     37  0.000000D+00  0.000000D+00 -0.541434D+00  0.000000D+00  0.000000D+00
     38  0.000000D+00  0.000000D+00  0.000000D+00  0.550777D-01  0.000000D+00
     39 -0.849367D-01  0.345422D+00  0.000000D+00  0.000000D+00 -0.349041D-03
     40  0.679201D-01  0.489451D-01  0.000000D+00  0.000000D+00 -0.456069D-02
     41 -0.849367D-01 -0.345422D+00  0.000000D+00  0.000000D+00 -0.349041D-03
     42  0.679201D-01 -0.489451D-01  0.000000D+00  0.000000D+00 -0.456069D-02
     43 -0.585335D-02  0.171753D-01  0.000000D+00  0.000000D+00 -0.348075D-01
     44 -0.166024D-01 -0.149760D-01  0.000000D+00  0.000000D+00  0.237890D-01
     45 -0.585335D-02 -0.171753D-01  0.000000D+00  0.000000D+00 -0.348075D-01
     46 -0.166024D-01  0.149760D-01  0.000000D+00  0.000000D+00  0.237890D-01
               21            22            23            24            25 
     21  0.932246D+00
     22  0.000000D+00  0.217833D+01
     23  0.000000D+00  0.000000D+00  0.217833D+01
     24  0.000000D+00  0.000000D+00  0.000000D+00  0.217833D+01
     25  0.306718D+00  0.000000D+00  0.000000D+00  0.000000D+00  0.253072D+00
     26  0.000000D+00  0.376673D+00  0.000000D+00  0.000000D+00  0.000000D+00
     27  0.000000D+00  0.000000D+00  0.376673D+00  0.000000D+00  0.000000D+00
     28  0.000000D+00  0.000000D+00  0.000000D+00  0.376673D+00  0.000000D+00
     29  0.486595D-01  0.000000D+00  0.000000D+00  0.000000D+00  0.759086D-01
     30  0.000000D+00  0.335613D-01  0.000000D+00  0.000000D+00  0.000000D+00
     31  0.000000D+00  0.000000D+00  0.335613D-01  0.000000D+00  0.000000D+00
     32  0.000000D+00  0.000000D+00  0.000000D+00  0.335613D-01  0.000000D+00
     33  0.520042D+00  0.000000D+00  0.000000D+00  0.000000D+00  0.226288D+00
     34  0.520042D+00  0.000000D+00  0.000000D+00  0.000000D+00  0.226288D+00
     35  0.520042D+00  0.000000D+00  0.000000D+00  0.000000D+00  0.226288D+00
     36  0.000000D+00  0.000000D+00  0.000000D+00  0.000000D+00  0.000000D+00
     37  0.000000D+00  0.000000D+00  0.000000D+00  0.000000D+00  0.000000D+00
     38  0.000000D+00  0.000000D+00  0.000000D+00  0.000000D+00  0.000000D+00
     39 -0.153574D-01 -0.222209D-01 -0.108450D-01  0.000000D+00 -0.141416D-01
     40 -0.130735D-01  0.113744D-01  0.555132D-02  0.000000D+00  0.702830D-02
     41 -0.153574D-01 -0.222209D-01  0.108450D-01  0.000000D+00 -0.141416D-01
     42 -0.130735D-01  0.113744D-01 -0.555132D-02  0.000000D+00  0.702830D-02
     43  0.397960D-01 -0.121108D+00  0.198663D+00  0.000000D+00  0.934993D-01
     44  0.113380D+00 -0.687448D-01  0.112767D+00  0.000000D+00  0.132860D+00
     45  0.397960D-01 -0.121108D+00 -0.198663D+00  0.000000D+00  0.934993D-01
     46  0.113380D+00 -0.687448D-01 -0.112767D+00  0.000000D+00  0.132860D+00
               26            27            28            29            30 
     26  0.421786D+00
     27  0.000000D+00  0.421786D+00
     28  0.000000D+00  0.000000D+00  0.421786D+00
     29  0.000000D+00  0.000000D+00  0.000000D+00  0.657000D-01
     30  0.102352D+00  0.000000D+00  0.000000D+00  0.000000D+00  0.109500D+00
     31  0.000000D+00  0.102352D+00  0.000000D+00  0.000000D+00  0.000000D+00
     32  0.000000D+00  0.000000D+00  0.102352D+00  0.000000D+00  0.000000D+00
     33  0.000000D+00  0.000000D+00  0.000000D+00  0.388353D-01  0.000000D+00
     34  0.000000D+00  0.000000D+00  0.000000D+00  0.388353D-01  0.000000D+00
     35  0.000000D+00  0.000000D+00  0.000000D+00  0.388353D-01  0.000000D+00
     36  0.000000D+00  0.000000D+00  0.000000D+00  0.000000D+00  0.000000D+00
     37  0.000000D+00  0.000000D+00  0.000000D+00  0.000000D+00  0.000000D+00
     38  0.000000D+00  0.000000D+00  0.000000D+00  0.000000D+00  0.000000D+00
     39  0.138972D-01  0.678261D-02  0.000000D+00  0.108285D-01  0.339886D-01
     40  0.730942D-01  0.356740D-01  0.000000D+00  0.275201D-01  0.676243D-01
     41  0.138972D-01 -0.678261D-02  0.000000D+00  0.108285D-01  0.339886D-01
     42  0.730942D-01 -0.356740D-01  0.000000D+00  0.275201D-01  0.676243D-01
     43 -0.140040D+00  0.229717D+00  0.000000D+00  0.281911D-01 -0.209881D-01
     44 -0.107524D+00  0.176380D+00  0.000000D+00  0.596677D-01 -0.367895D-01
     45 -0.140040D+00 -0.229717D+00  0.000000D+00  0.281911D-01 -0.209881D-01
     46 -0.107524D+00 -0.176380D+00  0.000000D+00  0.596677D-01 -0.367895D-01
               31            32            33            34            35 
     31  0.109500D+00
     32  0.000000D+00  0.109500D+00
     33  0.000000D+00  0.000000D+00  0.173333D+01
     34  0.000000D+00  0.000000D+00 -0.133333D+00  0.173333D+01
     35  0.000000D+00  0.000000D+00 -0.133333D+00 -0.133333D+00  0.173333D+01
     36  0.000000D+00  0.000000D+00  0.000000D+00  0.000000D+00  0.000000D+00
     37  0.000000D+00  0.000000D+00  0.000000D+00  0.000000D+00  0.000000D+00
     38  0.000000D+00  0.000000D+00  0.000000D+00  0.000000D+00  0.000000D+00
     39  0.165883D-01  0.000000D+00 -0.261710D-01 -0.106930D-01 -0.585335D-02
     40  0.330043D-01  0.000000D+00  0.111357D-02 -0.123825D-01 -0.166024D-01
     41 -0.165883D-01  0.000000D+00 -0.261710D-01 -0.106930D-01 -0.585335D-02
     42 -0.330043D-01  0.000000D+00  0.111357D-02 -0.123825D-01 -0.166024D-01
     43  0.344283D-01  0.000000D+00  0.366390D-01  0.242202D+00 -0.849367D-01
     44  0.603485D-01  0.000000D+00  0.851469D-01  0.114275D+00  0.679201D-01
     45 -0.344283D-01  0.000000D+00  0.366390D-01  0.242202D+00 -0.849367D-01
     46 -0.603485D-01  0.000000D+00  0.851469D-01  0.114275D+00  0.679201D-01
               36            37            38            39            40 
     36  0.280000D+01
     37  0.000000D+00  0.280000D+01
     38  0.000000D+00  0.000000D+00  0.280000D+01
     39 -0.171753D-01  0.000000D+00  0.000000D+00  0.139568D+01
     40  0.149760D-01  0.000000D+00  0.000000D+00  0.259735D+00  0.241917D+00
     41  0.171753D-01  0.000000D+00  0.000000D+00 -0.215317D-01 -0.462458D-02
     42 -0.149760D-01  0.000000D+00  0.000000D+00 -0.462458D-02  0.290836D-01
     43 -0.345422D+00  0.000000D+00  0.000000D+00 -0.205251D-02 -0.132355D-01
     44 -0.489451D-01  0.000000D+00  0.000000D+00 -0.132355D-01 -0.758808D-02
     45  0.345422D+00  0.000000D+00  0.000000D+00 -0.641178D-04 -0.562452D-02
     46  0.489451D-01  0.000000D+00  0.000000D+00 -0.562452D-02 -0.127923D-01
               41            42            43            44            45 
     41  0.139568D+01
     42  0.259735D+00  0.241917D+00
     43 -0.641178D-04 -0.562452D-02  0.139568D+01
     44 -0.562452D-02 -0.127923D-01  0.259735D+00  0.241917D+00
     45 -0.205251D-02 -0.132355D-01 -0.215317D-01 -0.462458D-02  0.139568D+01
     46 -0.132355D-01 -0.758808D-02 -0.462458D-02  0.290836D-01  0.259735D+00
               46 
     46  0.241917D+00
 Entering OneElI...
 Calculate potential energy integrals
    NBasis =  46  MinDer = 0  MaxDer = 0
 Requested accuracy = 0.1000D-12
 PrsmSu:  NPrtUS=   2 ThrOK=T IAlg=1
 PRISM was handed    67094180 working-precision words and   171 shell-pairs
 PRISM was handed    67094180 working-precision words and   171 shell-pairs
 IPart=  0 NShTot=         522 NBatch=          87 AvBLen=         6.0
 IPart=  1 NShTot=         504 NBatch=          84 AvBLen=         6.0
 ***** Potential Energy ***** 
                1             2             3             4             5 
      1  0.379758D+02
      2  0.325034D+01  0.954109D+01
      3 -0.754548D-01 -0.547415D+00  0.103022D+02
      4  0.000000D+00  0.000000D+00  0.000000D+00  0.100195D+02
      5  0.000000D+00  0.000000D+00  0.000000D+00  0.000000D+00  0.986188D+01
      6  0.395732D+01  0.722449D+01 -0.552654D+00  0.000000D+00  0.000000D+00
      7 -0.126760D-01 -0.400277D+00  0.477705D+01  0.000000D+00  0.000000D+00
      8  0.000000D+00  0.000000D+00  0.000000D+00  0.447620D+01  0.000000D+00
      9  0.000000D+00  0.000000D+00  0.000000D+00  0.000000D+00  0.434027D+01
     10  0.147551D+01  0.340376D+01 -0.309548D+00  0.000000D+00  0.000000D+00
     11 -0.255468D-02 -0.119276D+00  0.131075D+01  0.000000D+00  0.000000D+00
     12  0.000000D+00  0.000000D+00  0.000000D+00  0.120970D+01  0.000000D+00
     13  0.000000D+00  0.000000D+00  0.000000D+00  0.000000D+00  0.116867D+01
     14  0.113282D+01  0.647992D+01 -0.898759D+00  0.000000D+00  0.000000D+00
     15  0.112565D+01  0.624613D+01 -0.166588D+00  0.000000D+00  0.000000D+00
     16  0.112129D+01  0.611139D+01 -0.225756D+00  0.000000D+00  0.000000D+00
     17  0.000000D+00  0.000000D+00  0.000000D+00 -0.288539D+00  0.000000D+00
     18  0.000000D+00  0.000000D+00  0.000000D+00  0.000000D+00 -0.391021D+00
     19  0.000000D+00  0.000000D+00  0.000000D+00  0.000000D+00  0.000000D+00
     20  0.522031D-04  0.386654D+00 -0.877428D+00  0.000000D+00  0.000000D+00
     21  0.386654D+00  0.199166D+01 -0.281338D+01  0.000000D+00  0.000000D+00
     22  0.877428D+00  0.281338D+01 -0.340456D+01  0.000000D+00  0.000000D+00
     23  0.000000D+00  0.000000D+00  0.000000D+00  0.101754D+01  0.000000D+00
     24  0.000000D+00  0.000000D+00  0.000000D+00  0.000000D+00  0.100899D+01
     25  0.136689D+01  0.330447D+01 -0.247836D+01  0.000000D+00  0.000000D+00
     26  0.278636D+01  0.511865D+01 -0.180210D+01  0.000000D+00  0.000000D+00
     27  0.000000D+00  0.000000D+00  0.000000D+00  0.192037D+01  0.000000D+00
     28  0.000000D+00  0.000000D+00  0.000000D+00  0.000000D+00  0.188382D+01
     29  0.111456D+01  0.266567D+01 -0.785103D+00  0.000000D+00  0.000000D+00
     30  0.117714D+01  0.254173D+01  0.270952D+00  0.000000D+00  0.000000D+00
     31  0.000000D+00  0.000000D+00  0.000000D+00  0.936430D+00  0.000000D+00
     32  0.000000D+00  0.000000D+00  0.000000D+00  0.000000D+00  0.908509D+00
     33  0.104713D+01  0.335754D+01 -0.421660D+01  0.000000D+00  0.000000D+00
     34  0.142464D-01  0.815461D+00 -0.126683D+01  0.000000D+00  0.000000D+00
     35  0.142090D-01  0.809177D+00 -0.125640D+01  0.000000D+00  0.000000D+00
     36  0.000000D+00  0.000000D+00  0.000000D+00  0.163963D+01  0.000000D+00
     37  0.000000D+00  0.000000D+00  0.000000D+00  0.000000D+00  0.162963D+01
     38  0.000000D+00  0.000000D+00  0.000000D+00  0.000000D+00  0.000000D+00
     39  0.638256D+00  0.217119D+01  0.142181D+01  0.242168D+01  0.000000D+00
     40  0.194661D+01  0.400503D+01  0.800304D+00  0.171994D+01  0.000000D+00
     41  0.638256D+00  0.217119D+01  0.142181D+01 -0.242168D+01  0.000000D+00
     42  0.194661D+01  0.400503D+01  0.800304D+00 -0.171994D+01  0.000000D+00
     43  0.655154D-03  0.713886D-01 -0.140069D+00  0.579201D-01  0.000000D+00
     44  0.297634D+00  0.991751D+00 -0.963411D+00  0.384708D+00  0.000000D+00
     45  0.655154D-03  0.713886D-01 -0.140069D+00 -0.579201D-01  0.000000D+00
     46  0.297634D+00  0.991751D+00 -0.963411D+00 -0.384708D+00  0.000000D+00
                6             7             8             9            10 
      6  0.758242D+01
      7 -0.834042D+00  0.660462D+01
      8  0.000000D+00  0.000000D+00  0.584153D+01
      9  0.000000D+00  0.000000D+00  0.000000D+00  0.560969D+01
     10  0.475783D+01 -0.752131D+00  0.000000D+00  0.000000D+00  0.472988D+01
     11 -0.383225D+00  0.329621D+01  0.000000D+00  0.000000D+00 -0.585647D+00
     12  0.000000D+00  0.000000D+00  0.289405D+01  0.000000D+00  0.000000D+00
     13  0.000000D+00  0.000000D+00  0.000000D+00  0.278866D+01  0.000000D+00
     14  0.542661D+01 -0.781273D+00  0.000000D+00  0.000000D+00  0.270085D+01
     15  0.514897D+01 -0.116772D+00  0.000000D+00  0.000000D+00  0.253859D+01
     16  0.500523D+01 -0.173382D+00  0.000000D+00  0.000000D+00  0.245987D+01
     17  0.000000D+00  0.000000D+00 -0.202255D+00  0.000000D+00  0.000000D+00
     18  0.000000D+00  0.000000D+00  0.000000D+00 -0.300306D+00  0.000000D+00
     19  0.000000D+00  0.000000D+00  0.000000D+00  0.000000D+00  0.000000D+00
     20  0.136689D+01 -0.278636D+01  0.000000D+00  0.000000D+00  0.111456D+01
     21  0.330447D+01 -0.511865D+01  0.000000D+00  0.000000D+00  0.266567D+01
     22  0.247836D+01 -0.180210D+01  0.000000D+00  0.000000D+00  0.785103D+00
     23  0.000000D+00  0.000000D+00  0.192037D+01  0.000000D+00  0.000000D+00
     24  0.000000D+00  0.000000D+00  0.000000D+00  0.188382D+01  0.000000D+00
     25  0.462658D+01 -0.483190D+01  0.000000D+00  0.000000D+00  0.393010D+01
     26  0.483190D+01 -0.791981D+00  0.000000D+00  0.000000D+00  0.204894D+01
     27  0.000000D+00  0.000000D+00  0.349981D+01  0.000000D+00  0.000000D+00
     28  0.000000D+00  0.000000D+00  0.000000D+00  0.340049D+01  0.000000D+00
     29  0.393010D+01 -0.204894D+01  0.000000D+00  0.000000D+00  0.424426D+01
     30  0.313869D+01  0.105859D+01  0.000000D+00  0.000000D+00  0.225851D+01
     31  0.000000D+00  0.000000D+00  0.236294D+01  0.000000D+00  0.000000D+00
     32  0.000000D+00  0.000000D+00  0.000000D+00  0.228351D+01  0.000000D+00
     33  0.336089D+01 -0.384177D+01  0.000000D+00  0.000000D+00  0.221838D+01
     34  0.211339D+01 -0.364666D+01  0.000000D+00  0.000000D+00  0.195244D+01
     35  0.207572D+01 -0.356575D+01  0.000000D+00  0.000000D+00  0.189885D+01
     36  0.000000D+00  0.000000D+00  0.132967D+01  0.000000D+00  0.000000D+00
     37  0.000000D+00  0.000000D+00  0.000000D+00  0.133354D+01  0.000000D+00
     38  0.000000D+00  0.000000D+00  0.000000D+00  0.000000D+00  0.000000D+00
     39  0.258654D+01  0.162733D+01  0.275804D+01  0.000000D+00  0.161802D+01
     40  0.472949D+01  0.126362D+01  0.268200D+01  0.000000D+00  0.346403D+01
     41  0.258654D+01  0.162733D+01 -0.275804D+01  0.000000D+00  0.161802D+01
     42  0.472949D+01  0.126362D+01 -0.268200D+01  0.000000D+00  0.346403D+01
     43  0.547347D+00 -0.128160D+01  0.564532D+00  0.000000D+00  0.101390D+01
     44  0.195008D+01 -0.276773D+01  0.106922D+01  0.000000D+00  0.243420D+01
     45  0.547347D+00 -0.128160D+01 -0.564532D+00  0.000000D+00  0.101390D+01
     46  0.195008D+01 -0.276773D+01 -0.106922D+01  0.000000D+00  0.243420D+01
               11            12            13            14            15 
     11  0.374321D+01
     12  0.000000D+00  0.338435D+01
     13  0.000000D+00  0.000000D+00  0.330050D+01
     14 -0.236087D+00  0.000000D+00  0.000000D+00  0.887461D+01
     15 -0.336795D-01  0.000000D+00  0.000000D+00  0.285023D+01  0.832478D+01
     16 -0.502942D-01  0.000000D+00  0.000000D+00  0.278387D+01  0.271267D+01
     17  0.000000D+00 -0.583345D-01  0.000000D+00  0.000000D+00  0.000000D+00
     18  0.000000D+00  0.000000D+00 -0.871120D-01  0.000000D+00  0.000000D+00
     19  0.000000D+00  0.000000D+00  0.000000D+00  0.000000D+00  0.000000D+00
     20 -0.117714D+01  0.000000D+00  0.000000D+00  0.104713D+01  0.142464D-01
     21 -0.254173D+01  0.000000D+00  0.000000D+00  0.335754D+01  0.815461D+00
     22  0.270952D+00  0.000000D+00  0.000000D+00  0.421660D+01  0.126683D+01
     23  0.000000D+00  0.936430D+00  0.000000D+00  0.000000D+00  0.000000D+00
     24  0.000000D+00  0.000000D+00  0.908509D+00  0.000000D+00  0.000000D+00
     25 -0.313869D+01  0.000000D+00  0.000000D+00  0.336089D+01  0.211339D+01
     26  0.105859D+01  0.000000D+00  0.000000D+00  0.384177D+01  0.364666D+01
     27  0.000000D+00  0.236294D+01  0.000000D+00  0.000000D+00  0.000000D+00
     28  0.000000D+00  0.000000D+00  0.228351D+01  0.000000D+00  0.000000D+00
     29 -0.225851D+01  0.000000D+00  0.000000D+00  0.221838D+01  0.195244D+01
     30  0.203658D+01  0.000000D+00  0.000000D+00  0.183978D+01  0.195221D+01
     31  0.000000D+00  0.300285D+01  0.000000D+00  0.000000D+00  0.000000D+00
     32  0.000000D+00  0.000000D+00  0.292798D+01  0.000000D+00  0.000000D+00
     33 -0.183978D+01  0.000000D+00  0.000000D+00  0.488618D+01  0.141744D+01
     34 -0.195221D+01  0.000000D+00  0.000000D+00  0.141744D+01  0.614548D+00
     35 -0.188613D+01  0.000000D+00  0.000000D+00  0.140833D+01  0.203547D+00
     36  0.000000D+00  0.217717D+00  0.000000D+00  0.000000D+00  0.000000D+00
     37  0.000000D+00  0.000000D+00  0.233378D+00  0.000000D+00  0.000000D+00
     38  0.000000D+00  0.000000D+00  0.000000D+00  0.000000D+00  0.000000D+00
     39  0.606426D+00  0.102610D+01  0.000000D+00  0.155326D+01  0.275644D+01
     40  0.790796D+00  0.159935D+01  0.000000D+00  0.296063D+01  0.320649D+01
     41  0.606426D+00 -0.102610D+01  0.000000D+00  0.155326D+01  0.275644D+01
     42  0.790796D+00 -0.159935D+01  0.000000D+00  0.296063D+01  0.320649D+01
     43 -0.140106D+01  0.638625D+00  0.000000D+00  0.135129D+00  0.349349D-01
     44 -0.267289D+01  0.110389D+01  0.000000D+00  0.114867D+01  0.658437D+00
     45 -0.140106D+01 -0.638625D+00  0.000000D+00  0.135129D+00  0.349349D-01
     46 -0.267289D+01 -0.110389D+01  0.000000D+00  0.114867D+01  0.658437D+00
               16            17            18            19            20 
     16  0.803452D+01
     17  0.000000D+00  0.855069D+01
     18  0.000000D+00  0.000000D+00  0.835160D+01
     19  0.000000D+00  0.000000D+00  0.000000D+00  0.813800D+01
     20  0.142090D-01  0.000000D+00  0.000000D+00  0.000000D+00  0.379758D+02
     21  0.809177D+00  0.000000D+00  0.000000D+00  0.000000D+00  0.325034D+01
     22  0.125640D+01  0.000000D+00  0.000000D+00  0.000000D+00  0.754548D-01
     23  0.000000D+00 -0.163963D+01  0.000000D+00  0.000000D+00  0.000000D+00
     24  0.000000D+00  0.000000D+00 -0.162963D+01  0.000000D+00  0.000000D+00
     25  0.207572D+01  0.000000D+00  0.000000D+00  0.000000D+00  0.395732D+01
     26  0.356575D+01  0.000000D+00  0.000000D+00  0.000000D+00  0.126760D-01
     27  0.000000D+00 -0.132967D+01  0.000000D+00  0.000000D+00  0.000000D+00
     28  0.000000D+00  0.000000D+00 -0.133354D+01  0.000000D+00  0.000000D+00
     29  0.189885D+01  0.000000D+00  0.000000D+00  0.000000D+00  0.147551D+01
     30  0.188613D+01  0.000000D+00  0.000000D+00  0.000000D+00  0.255468D-02
     31  0.000000D+00 -0.217717D+00  0.000000D+00  0.000000D+00  0.000000D+00
     32  0.000000D+00  0.000000D+00 -0.233378D+00  0.000000D+00  0.000000D+00
     33  0.140833D+01  0.000000D+00  0.000000D+00  0.000000D+00  0.113282D+01
     34  0.203547D+00  0.000000D+00  0.000000D+00  0.000000D+00  0.112565D+01
     35  0.607345D+00  0.000000D+00  0.000000D+00  0.000000D+00  0.112129D+01
     36  0.000000D+00 -0.280198D+01  0.000000D+00  0.000000D+00  0.000000D+00
     37  0.000000D+00  0.000000D+00 -0.278771D+01  0.000000D+00  0.000000D+00
     38  0.000000D+00  0.000000D+00  0.000000D+00  0.610640D+00  0.000000D+00
     39  0.890511D+00  0.189515D+01  0.000000D+00  0.000000D+00  0.655154D-03
     40  0.269390D+01  0.381503D+00  0.000000D+00  0.000000D+00  0.297634D+00
     41  0.890511D+00 -0.189515D+01  0.000000D+00  0.000000D+00  0.655154D-03
     42  0.269390D+01 -0.381503D+00  0.000000D+00  0.000000D+00  0.297634D+00
     43  0.131851D-01 -0.849271D-01  0.000000D+00  0.000000D+00  0.638256D+00
     44  0.564461D+00 -0.340597D+00  0.000000D+00  0.000000D+00  0.194661D+01
     45  0.131851D-01  0.849271D-01  0.000000D+00  0.000000D+00  0.638256D+00
     46  0.564461D+00  0.340597D+00  0.000000D+00  0.000000D+00  0.194661D+01
               21            22            23            24            25 
     21  0.954109D+01
     22  0.547415D+00  0.103022D+02
     23  0.000000D+00  0.000000D+00  0.100195D+02
     24  0.000000D+00  0.000000D+00  0.000000D+00  0.986188D+01
     25  0.722449D+01  0.552654D+00  0.000000D+00  0.000000D+00  0.758242D+01
     26  0.400277D+00  0.477705D+01  0.000000D+00  0.000000D+00  0.834042D+00
     27  0.000000D+00  0.000000D+00  0.447620D+01  0.000000D+00  0.000000D+00
     28  0.000000D+00  0.000000D+00  0.000000D+00  0.434027D+01  0.000000D+00
     29  0.340376D+01  0.309548D+00  0.000000D+00  0.000000D+00  0.475783D+01
     30  0.119276D+00  0.131075D+01  0.000000D+00  0.000000D+00  0.383225D+00
     31  0.000000D+00  0.000000D+00  0.120970D+01  0.000000D+00  0.000000D+00
     32  0.000000D+00  0.000000D+00  0.000000D+00  0.116867D+01  0.000000D+00
     33  0.647992D+01  0.898759D+00  0.000000D+00  0.000000D+00  0.542661D+01
     34  0.624613D+01  0.166588D+00  0.000000D+00  0.000000D+00  0.514897D+01
     35  0.611139D+01  0.225756D+00  0.000000D+00  0.000000D+00  0.500523D+01
     36  0.000000D+00  0.000000D+00  0.288539D+00  0.000000D+00  0.000000D+00
     37  0.000000D+00  0.000000D+00  0.000000D+00  0.391021D+00  0.000000D+00
     38  0.000000D+00  0.000000D+00  0.000000D+00  0.000000D+00  0.000000D+00
     39  0.713886D-01  0.140069D+00  0.579201D-01  0.000000D+00  0.547347D+00
     40  0.991751D+00  0.963411D+00  0.384708D+00  0.000000D+00  0.195008D+01
     41  0.713886D-01  0.140069D+00 -0.579201D-01  0.000000D+00  0.547347D+00
     42  0.991751D+00  0.963411D+00 -0.384708D+00  0.000000D+00  0.195008D+01
     43  0.217119D+01 -0.142181D+01  0.242168D+01  0.000000D+00  0.258654D+01
     44  0.400503D+01 -0.800304D+00  0.171994D+01  0.000000D+00  0.472949D+01
     45  0.217119D+01 -0.142181D+01 -0.242168D+01  0.000000D+00  0.258654D+01
     46  0.400503D+01 -0.800304D+00 -0.171994D+01  0.000000D+00  0.472949D+01
               26            27            28            29            30 
     26  0.660462D+01
     27  0.000000D+00  0.584153D+01
     28  0.000000D+00  0.000000D+00  0.560969D+01
     29  0.752131D+00  0.000000D+00  0.000000D+00  0.472988D+01
     30  0.329621D+01  0.000000D+00  0.000000D+00  0.585647D+00  0.374321D+01
     31  0.000000D+00  0.289405D+01  0.000000D+00  0.000000D+00  0.000000D+00
     32  0.000000D+00  0.000000D+00  0.278866D+01  0.000000D+00  0.000000D+00
     33  0.781273D+00  0.000000D+00  0.000000D+00  0.270085D+01  0.236087D+00
     34  0.116772D+00  0.000000D+00  0.000000D+00  0.253859D+01  0.336795D-01
     35  0.173382D+00  0.000000D+00  0.000000D+00  0.245987D+01  0.502942D-01
     36  0.000000D+00  0.202255D+00  0.000000D+00  0.000000D+00  0.000000D+00
     37  0.000000D+00  0.000000D+00  0.300306D+00  0.000000D+00  0.000000D+00
     38  0.000000D+00  0.000000D+00  0.000000D+00  0.000000D+00  0.000000D+00
     39  0.128160D+01  0.564532D+00  0.000000D+00  0.101390D+01  0.140106D+01
     40  0.276773D+01  0.106922D+01  0.000000D+00  0.243420D+01  0.267289D+01
     41  0.128160D+01 -0.564532D+00  0.000000D+00  0.101390D+01  0.140106D+01
     42  0.276773D+01 -0.106922D+01  0.000000D+00  0.243420D+01  0.267289D+01
     43 -0.162733D+01  0.275804D+01  0.000000D+00  0.161802D+01 -0.606426D+00
     44 -0.126362D+01  0.268200D+01  0.000000D+00  0.346403D+01 -0.790796D+00
     45 -0.162733D+01 -0.275804D+01  0.000000D+00  0.161802D+01 -0.606426D+00
     46 -0.126362D+01 -0.268200D+01  0.000000D+00  0.346403D+01 -0.790796D+00
               31            32            33            34            35 
     31  0.338435D+01
     32  0.000000D+00  0.330050D+01
     33  0.000000D+00  0.000000D+00  0.887461D+01
     34  0.000000D+00  0.000000D+00  0.285023D+01  0.832478D+01
     35  0.000000D+00  0.000000D+00  0.278387D+01  0.271267D+01  0.803452D+01
     36  0.583345D-01  0.000000D+00  0.000000D+00  0.000000D+00  0.000000D+00
     37  0.000000D+00  0.871120D-01  0.000000D+00  0.000000D+00  0.000000D+00
     38  0.000000D+00  0.000000D+00  0.000000D+00  0.000000D+00  0.000000D+00
     39  0.638625D+00  0.000000D+00  0.135129D+00  0.349349D-01  0.131851D-01
     40  0.110389D+01  0.000000D+00  0.114867D+01  0.658437D+00  0.564461D+00
     41 -0.638625D+00  0.000000D+00  0.135129D+00  0.349349D-01  0.131851D-01
     42 -0.110389D+01  0.000000D+00  0.114867D+01  0.658437D+00  0.564461D+00
     43  0.102610D+01  0.000000D+00  0.155326D+01  0.275644D+01  0.890511D+00
     44  0.159935D+01  0.000000D+00  0.296063D+01  0.320649D+01  0.269390D+01
     45 -0.102610D+01  0.000000D+00  0.155326D+01  0.275644D+01  0.890511D+00
     46 -0.159935D+01  0.000000D+00  0.296063D+01  0.320649D+01  0.269390D+01
               36            37            38            39            40 
     36  0.855069D+01
     37  0.000000D+00  0.835160D+01
     38  0.000000D+00  0.000000D+00  0.813800D+01
     39  0.849271D-01  0.000000D+00  0.000000D+00  0.670738D+01
     40  0.340597D+00  0.000000D+00  0.000000D+00  0.405566D+01  0.541359D+01
     41 -0.849271D-01  0.000000D+00  0.000000D+00  0.103927D+00  0.897562D+00
     42 -0.340597D+00  0.000000D+00  0.000000D+00  0.897562D+00  0.234661D+01
     43 -0.189515D+01  0.000000D+00  0.000000D+00  0.390719D-02  0.247619D+00
     44 -0.381503D+00  0.000000D+00  0.000000D+00  0.247619D+00  0.107106D+01
     45  0.189515D+01  0.000000D+00  0.000000D+00  0.108997D-03  0.592826D-01
     46  0.381503D+00  0.000000D+00  0.000000D+00  0.592826D-01  0.486071D+00
               41            42            43            44            45 
     41  0.670738D+01
     42  0.405566D+01  0.541359D+01
     43  0.108997D-03  0.592826D-01  0.670738D+01
     44  0.592826D-01  0.486071D+00  0.405566D+01  0.541359D+01
     45  0.390719D-02  0.247619D+00  0.103927D+00  0.897562D+00  0.670738D+01
     46  0.247619D+00  0.107106D+01  0.897562D+00  0.234661D+01  0.405566D+01
               46 
     46  0.541359D+01
 ****** Core Hamiltonian ****** 
                1             2             3             4             5 
      1 -0.217682D+02
      2 -0.449791D+01 -0.860884D+01
      3  0.754548D-01  0.547415D+00 -0.812383D+01
      4  0.000000D+00  0.000000D+00  0.000000D+00 -0.784116D+01
      5  0.000000D+00  0.000000D+00  0.000000D+00  0.000000D+00 -0.768354D+01
      6 -0.386737D+01 -0.691777D+01  0.552654D+00  0.000000D+00  0.000000D+00
      7  0.126760D-01  0.400277D+00 -0.440038D+01  0.000000D+00  0.000000D+00
      8  0.000000D+00  0.000000D+00  0.000000D+00 -0.409953D+01  0.000000D+00
      9  0.000000D+00  0.000000D+00  0.000000D+00  0.000000D+00 -0.396360D+01
     10 -0.146643D+01 -0.335510D+01  0.309548D+00  0.000000D+00  0.000000D+00
     11  0.255468D-02  0.119276D+00 -0.127719D+01  0.000000D+00  0.000000D+00
     12  0.000000D+00  0.000000D+00  0.000000D+00 -0.117613D+01  0.000000D+00
     13  0.000000D+00  0.000000D+00  0.000000D+00  0.000000D+00 -0.113511D+01
     14 -0.165764D+01 -0.595988D+01  0.898759D+00  0.000000D+00  0.000000D+00
     15 -0.165047D+01 -0.572609D+01  0.166588D+00  0.000000D+00  0.000000D+00
     16 -0.164611D+01 -0.559135D+01  0.225756D+00  0.000000D+00  0.000000D+00
     17  0.000000D+00  0.000000D+00  0.000000D+00  0.288539D+00  0.000000D+00
     18  0.000000D+00  0.000000D+00  0.000000D+00  0.000000D+00  0.391021D+00
     19  0.000000D+00  0.000000D+00  0.000000D+00  0.000000D+00  0.000000D+00
     20 -0.187616D-03 -0.417212D+00  0.907603D+00  0.000000D+00  0.000000D+00
     21 -0.417212D+00 -0.199859D+01  0.269926D+01  0.000000D+00  0.000000D+00
     22 -0.907603D+00 -0.269926D+01  0.306283D+01  0.000000D+00  0.000000D+00
     23  0.000000D+00  0.000000D+00  0.000000D+00 -0.984959D+00  0.000000D+00
     24  0.000000D+00  0.000000D+00  0.000000D+00  0.000000D+00 -0.976408D+00
     25 -0.135751D+01 -0.324209D+01  0.236849D+01  0.000000D+00  0.000000D+00
     26 -0.272529D+01 -0.487928D+01  0.161843D+01  0.000000D+00  0.000000D+00
     27  0.000000D+00  0.000000D+00  0.000000D+00 -0.181516D+01  0.000000D+00
     28  0.000000D+00  0.000000D+00  0.000000D+00  0.000000D+00 -0.177862D+01
     29 -0.110898D+01 -0.263469D+01  0.772828D+00  0.000000D+00  0.000000D+00
     30 -0.116644D+01 -0.248688D+01 -0.265481D+00  0.000000D+00  0.000000D+00
     31  0.000000D+00  0.000000D+00  0.000000D+00 -0.913364D+00  0.000000D+00
     32  0.000000D+00  0.000000D+00  0.000000D+00  0.000000D+00 -0.885443D+00
     33 -0.112312D+01 -0.317208D+01  0.373219D+01  0.000000D+00  0.000000D+00
     34 -0.262512D-01 -0.885745D+00  0.131242D+01  0.000000D+00  0.000000D+00
     35 -0.262138D-01 -0.879461D+00  0.130199D+01  0.000000D+00  0.000000D+00
     36  0.000000D+00  0.000000D+00  0.000000D+00 -0.149701D+01  0.000000D+00
     37  0.000000D+00  0.000000D+00  0.000000D+00  0.000000D+00 -0.148701D+01
     38  0.000000D+00  0.000000D+00  0.000000D+00  0.000000D+00  0.000000D+00
     39 -0.673063D+00 -0.213140D+01 -0.130070D+01 -0.222301D+01  0.000000D+00
     40 -0.192282D+01 -0.389165D+01 -0.731560D+00 -0.160718D+01  0.000000D+00
     41 -0.673063D+00 -0.213140D+01 -0.130070D+01  0.222301D+01  0.000000D+00
     42 -0.192282D+01 -0.389165D+01 -0.731560D+00  0.160718D+01  0.000000D+00
     43 -0.100419D-02 -0.867460D-01  0.162290D+00 -0.687651D-01  0.000000D+00
     44 -0.302195D+00 -0.100482D+01  0.952036D+00 -0.379157D+00  0.000000D+00
     45 -0.100419D-02 -0.867460D-01  0.162290D+00  0.687651D-01  0.000000D+00
     46 -0.302195D+00 -0.100482D+01  0.952036D+00  0.379157D+00  0.000000D+00
                6             7             8             9            10 
      6 -0.732935D+01
      7  0.834042D+00 -0.618283D+01
      8  0.000000D+00  0.000000D+00 -0.541974D+01
      9  0.000000D+00  0.000000D+00  0.000000D+00 -0.518790D+01
     10 -0.468192D+01  0.752131D+00  0.000000D+00  0.000000D+00 -0.466418D+01
     11  0.383225D+00 -0.319386D+01  0.000000D+00  0.000000D+00  0.585647D+00
     12  0.000000D+00  0.000000D+00 -0.279170D+01  0.000000D+00  0.000000D+00
     13  0.000000D+00  0.000000D+00  0.000000D+00 -0.268631D+01  0.000000D+00
     14 -0.520032D+01  0.781273D+00  0.000000D+00  0.000000D+00 -0.266202D+01
     15 -0.492268D+01  0.116772D+00  0.000000D+00  0.000000D+00 -0.249975D+01
     16 -0.477894D+01  0.173382D+00  0.000000D+00  0.000000D+00 -0.242104D+01
     17  0.000000D+00  0.000000D+00  0.202255D+00  0.000000D+00  0.000000D+00
     18  0.000000D+00  0.000000D+00  0.000000D+00  0.300306D+00  0.000000D+00
     19  0.000000D+00  0.000000D+00  0.000000D+00  0.000000D+00  0.000000D+00
     20 -0.135751D+01  0.272529D+01  0.000000D+00  0.000000D+00 -0.110898D+01
     21 -0.324209D+01  0.487928D+01  0.000000D+00  0.000000D+00 -0.263469D+01
     22 -0.236849D+01  0.161843D+01  0.000000D+00  0.000000D+00 -0.772828D+00
     23  0.000000D+00  0.000000D+00 -0.181516D+01  0.000000D+00  0.000000D+00
     24  0.000000D+00  0.000000D+00  0.000000D+00 -0.177862D+01  0.000000D+00
     25 -0.453322D+01  0.463227D+01  0.000000D+00  0.000000D+00 -0.387856D+01
     26 -0.463227D+01  0.667974D+00  0.000000D+00  0.000000D+00 -0.200935D+01
     27  0.000000D+00  0.000000D+00 -0.330867D+01  0.000000D+00  0.000000D+00
     28  0.000000D+00  0.000000D+00  0.000000D+00 -0.320934D+01  0.000000D+00
     29 -0.387856D+01  0.200935D+01  0.000000D+00  0.000000D+00 -0.419262D+01
     30 -0.306100D+01 -0.103234D+01  0.000000D+00  0.000000D+00 -0.221079D+01
     31  0.000000D+00  0.000000D+00 -0.228855D+01  0.000000D+00  0.000000D+00
     32  0.000000D+00  0.000000D+00  0.000000D+00 -0.220912D+01  0.000000D+00
     33 -0.326277D+01  0.363763D+01  0.000000D+00  0.000000D+00 -0.219225D+01
     34 -0.208569D+01  0.347587D+01  0.000000D+00  0.000000D+00 -0.192826D+01
     35 -0.204802D+01  0.339496D+01  0.000000D+00  0.000000D+00 -0.187467D+01
     36  0.000000D+00  0.000000D+00 -0.121288D+01  0.000000D+00  0.000000D+00
     37  0.000000D+00  0.000000D+00  0.000000D+00 -0.121674D+01  0.000000D+00
     38  0.000000D+00  0.000000D+00  0.000000D+00  0.000000D+00  0.000000D+00
     39 -0.249305D+01 -0.148729D+01 -0.252833D+01  0.000000D+00 -0.158983D+01
     40 -0.459663D+01 -0.115609D+01 -0.250562D+01  0.000000D+00 -0.340437D+01
     41 -0.249305D+01 -0.148729D+01  0.252833D+01  0.000000D+00 -0.158983D+01
     42 -0.459663D+01 -0.115609D+01  0.250562D+01  0.000000D+00 -0.340437D+01
     43 -0.561489D+00  0.126770D+01 -0.557749D+00  0.000000D+00 -0.100307D+01
     44 -0.194306D+01  0.269463D+01 -0.103355D+01  0.000000D+00 -0.240668D+01
     45 -0.561489D+00  0.126770D+01  0.557749D+00  0.000000D+00 -0.100307D+01
     46 -0.194306D+01  0.269463D+01  0.103355D+01  0.000000D+00 -0.240668D+01
               11            12            13            14            15 
     11 -0.363371D+01
     12  0.000000D+00 -0.327485D+01
     13  0.000000D+00  0.000000D+00 -0.319100D+01
     14  0.236087D+00  0.000000D+00  0.000000D+00 -0.714127D+01
     15  0.336795D-01  0.000000D+00  0.000000D+00 -0.298356D+01 -0.659145D+01
     16  0.502942D-01  0.000000D+00  0.000000D+00 -0.291720D+01 -0.284600D+01
     17  0.000000D+00  0.583345D-01  0.000000D+00  0.000000D+00  0.000000D+00
     18  0.000000D+00  0.000000D+00  0.871120D-01  0.000000D+00  0.000000D+00
     19  0.000000D+00  0.000000D+00  0.000000D+00  0.000000D+00  0.000000D+00
     20  0.116644D+01  0.000000D+00  0.000000D+00 -0.112312D+01 -0.262512D-01
     21  0.248688D+01  0.000000D+00  0.000000D+00 -0.317208D+01 -0.885745D+00
     22 -0.265481D+00  0.000000D+00  0.000000D+00 -0.373219D+01 -0.131242D+01
     23  0.000000D+00 -0.913364D+00  0.000000D+00  0.000000D+00  0.000000D+00
     24  0.000000D+00  0.000000D+00 -0.885443D+00  0.000000D+00  0.000000D+00
     25  0.306100D+01  0.000000D+00  0.000000D+00 -0.326277D+01 -0.208569D+01
     26 -0.103234D+01  0.000000D+00  0.000000D+00 -0.363763D+01 -0.347587D+01
     27  0.000000D+00 -0.228855D+01  0.000000D+00  0.000000D+00  0.000000D+00
     28  0.000000D+00  0.000000D+00 -0.220912D+01  0.000000D+00  0.000000D+00
     29  0.221079D+01  0.000000D+00  0.000000D+00 -0.219225D+01 -0.192826D+01
     30 -0.198307D+01  0.000000D+00  0.000000D+00 -0.179941D+01 -0.190709D+01
     31  0.000000D+00 -0.291318D+01  0.000000D+00  0.000000D+00  0.000000D+00
     32  0.000000D+00  0.000000D+00 -0.283832D+01  0.000000D+00  0.000000D+00
     33  0.179941D+01  0.000000D+00  0.000000D+00 -0.415900D+01 -0.148836D+01
     34  0.190709D+01  0.000000D+00  0.000000D+00 -0.148836D+01 -0.639815D+00
     35  0.184101D+01  0.000000D+00  0.000000D+00 -0.147924D+01 -0.265532D+00
     36  0.000000D+00 -0.211365D+00  0.000000D+00  0.000000D+00  0.000000D+00
     37  0.000000D+00  0.000000D+00 -0.227025D+00  0.000000D+00  0.000000D+00
     38  0.000000D+00  0.000000D+00  0.000000D+00  0.000000D+00  0.000000D+00
     39 -0.585438D+00 -0.991671D+00  0.000000D+00 -0.151662D+01 -0.251424D+01
     40 -0.754006D+00 -0.153900D+01  0.000000D+00 -0.287548D+01 -0.309221D+01
     41 -0.585438D+00  0.991671D+00  0.000000D+00 -0.151662D+01 -0.251424D+01
     42 -0.754006D+00  0.153900D+01  0.000000D+00 -0.287548D+01 -0.309221D+01
     43  0.136708D+01 -0.622036D+00  0.000000D+00 -0.161300D+00 -0.456279D-01
     44  0.260527D+01 -0.107088D+01  0.000000D+00 -0.114756D+01 -0.670820D+00
     45  0.136708D+01  0.622036D+00  0.000000D+00 -0.161300D+00 -0.456279D-01
     46  0.260527D+01  0.107088D+01  0.000000D+00 -0.114756D+01 -0.670820D+00
               16            17            18            19            20 
     16 -0.630119D+01
     17  0.000000D+00 -0.575069D+01
     18  0.000000D+00  0.000000D+00 -0.555160D+01
     19  0.000000D+00  0.000000D+00  0.000000D+00 -0.533800D+01
     20 -0.262138D-01  0.000000D+00  0.000000D+00  0.000000D+00 -0.217682D+02
     21 -0.879461D+00  0.000000D+00  0.000000D+00  0.000000D+00 -0.449791D+01
     22 -0.130199D+01  0.000000D+00  0.000000D+00  0.000000D+00 -0.754548D-01
     23  0.000000D+00  0.149701D+01  0.000000D+00  0.000000D+00  0.000000D+00
     24  0.000000D+00  0.000000D+00  0.148701D+01  0.000000D+00  0.000000D+00
     25 -0.204802D+01  0.000000D+00  0.000000D+00  0.000000D+00 -0.386737D+01
     26 -0.339496D+01  0.000000D+00  0.000000D+00  0.000000D+00 -0.126760D-01
     27  0.000000D+00  0.121288D+01  0.000000D+00  0.000000D+00  0.000000D+00
     28  0.000000D+00  0.000000D+00  0.121674D+01  0.000000D+00  0.000000D+00
     29 -0.187467D+01  0.000000D+00  0.000000D+00  0.000000D+00 -0.146643D+01
     30 -0.184101D+01  0.000000D+00  0.000000D+00  0.000000D+00 -0.255468D-02
     31  0.000000D+00  0.211365D+00  0.000000D+00  0.000000D+00  0.000000D+00
     32  0.000000D+00  0.000000D+00  0.227025D+00  0.000000D+00  0.000000D+00
     33 -0.147924D+01  0.000000D+00  0.000000D+00  0.000000D+00 -0.165764D+01
     34 -0.265532D+00  0.000000D+00  0.000000D+00  0.000000D+00 -0.165047D+01
     35 -0.632611D+00  0.000000D+00  0.000000D+00  0.000000D+00 -0.164611D+01
     36  0.000000D+00  0.226054D+01  0.000000D+00  0.000000D+00  0.000000D+00
     37  0.000000D+00  0.000000D+00  0.224628D+01  0.000000D+00  0.000000D+00
     38  0.000000D+00  0.000000D+00  0.000000D+00 -0.555562D+00  0.000000D+00
     39 -0.975448D+00 -0.154973D+01  0.000000D+00  0.000000D+00 -0.100419D-02
     40 -0.262598D+01 -0.332558D+00  0.000000D+00  0.000000D+00 -0.302195D+00
     41 -0.975448D+00  0.154973D+01  0.000000D+00  0.000000D+00 -0.100419D-02
     42 -0.262598D+01  0.332558D+00  0.000000D+00  0.000000D+00 -0.302195D+00
     43 -0.190384D-01  0.102102D+00  0.000000D+00  0.000000D+00 -0.673063D+00
     44 -0.581064D+00  0.325621D+00  0.000000D+00  0.000000D+00 -0.192282D+01
     45 -0.190384D-01 -0.102102D+00  0.000000D+00  0.000000D+00 -0.673063D+00
     46 -0.581064D+00 -0.325621D+00  0.000000D+00  0.000000D+00 -0.192282D+01
               21            22            23            24            25 
     21 -0.860884D+01
     22 -0.547415D+00 -0.812383D+01
     23  0.000000D+00  0.000000D+00 -0.784116D+01
     24  0.000000D+00  0.000000D+00  0.000000D+00 -0.768354D+01
     25 -0.691777D+01 -0.552654D+00  0.000000D+00  0.000000D+00 -0.732935D+01
     26 -0.400277D+00 -0.440038D+01  0.000000D+00  0.000000D+00 -0.834042D+00
     27  0.000000D+00  0.000000D+00 -0.409953D+01  0.000000D+00  0.000000D+00
     28  0.000000D+00  0.000000D+00  0.000000D+00 -0.396360D+01  0.000000D+00
     29 -0.335510D+01 -0.309548D+00  0.000000D+00  0.000000D+00 -0.468192D+01
     30 -0.119276D+00 -0.127719D+01  0.000000D+00  0.000000D+00 -0.383225D+00
     31  0.000000D+00  0.000000D+00 -0.117613D+01  0.000000D+00  0.000000D+00
     32  0.000000D+00  0.000000D+00  0.000000D+00 -0.113511D+01  0.000000D+00
     33 -0.595988D+01 -0.898759D+00  0.000000D+00  0.000000D+00 -0.520032D+01
     34 -0.572609D+01 -0.166588D+00  0.000000D+00  0.000000D+00 -0.492268D+01
     35 -0.559135D+01 -0.225756D+00  0.000000D+00  0.000000D+00 -0.477894D+01
     36  0.000000D+00  0.000000D+00 -0.288539D+00  0.000000D+00  0.000000D+00
     37  0.000000D+00  0.000000D+00  0.000000D+00 -0.391021D+00  0.000000D+00
     38  0.000000D+00  0.000000D+00  0.000000D+00  0.000000D+00  0.000000D+00
     39 -0.867460D-01 -0.162290D+00 -0.687651D-01  0.000000D+00 -0.561489D+00
     40 -0.100482D+01 -0.952036D+00 -0.379157D+00  0.000000D+00 -0.194306D+01
     41 -0.867460D-01 -0.162290D+00  0.687651D-01  0.000000D+00 -0.561489D+00
     42 -0.100482D+01 -0.952036D+00  0.379157D+00  0.000000D+00 -0.194306D+01
     43 -0.213140D+01  0.130070D+01 -0.222301D+01  0.000000D+00 -0.249305D+01
     44 -0.389165D+01  0.731560D+00 -0.160718D+01  0.000000D+00 -0.459663D+01
     45 -0.213140D+01  0.130070D+01  0.222301D+01  0.000000D+00 -0.249305D+01
     46 -0.389165D+01  0.731560D+00  0.160718D+01  0.000000D+00 -0.459663D+01
               26            27            28            29            30 
     26 -0.618283D+01
     27  0.000000D+00 -0.541974D+01
     28  0.000000D+00  0.000000D+00 -0.518790D+01
     29 -0.752131D+00  0.000000D+00  0.000000D+00 -0.466418D+01
     30 -0.319386D+01  0.000000D+00  0.000000D+00 -0.585647D+00 -0.363371D+01
     31  0.000000D+00 -0.279170D+01  0.000000D+00  0.000000D+00  0.000000D+00
     32  0.000000D+00  0.000000D+00 -0.268631D+01  0.000000D+00  0.000000D+00
     33 -0.781273D+00  0.000000D+00  0.000000D+00 -0.266202D+01 -0.236087D+00
     34 -0.116772D+00  0.000000D+00  0.000000D+00 -0.249975D+01 -0.336795D-01
     35 -0.173382D+00  0.000000D+00  0.000000D+00 -0.242104D+01 -0.502942D-01
     36  0.000000D+00 -0.202255D+00  0.000000D+00  0.000000D+00  0.000000D+00
     37  0.000000D+00  0.000000D+00 -0.300306D+00  0.000000D+00  0.000000D+00
     38  0.000000D+00  0.000000D+00  0.000000D+00  0.000000D+00  0.000000D+00
     39 -0.126770D+01 -0.557749D+00  0.000000D+00 -0.100307D+01 -0.136708D+01
     40 -0.269463D+01 -0.103355D+01  0.000000D+00 -0.240668D+01 -0.260527D+01
     41 -0.126770D+01  0.557749D+00  0.000000D+00 -0.100307D+01 -0.136708D+01
     42 -0.269463D+01  0.103355D+01  0.000000D+00 -0.240668D+01 -0.260527D+01
     43  0.148729D+01 -0.252833D+01  0.000000D+00 -0.158983D+01  0.585438D+00
     44  0.115609D+01 -0.250562D+01  0.000000D+00 -0.340437D+01  0.754006D+00
     45  0.148729D+01  0.252833D+01  0.000000D+00 -0.158983D+01  0.585438D+00
     46  0.115609D+01  0.250562D+01  0.000000D+00 -0.340437D+01  0.754006D+00
               31            32            33            34            35 
     31 -0.327485D+01
     32  0.000000D+00 -0.319100D+01
     33  0.000000D+00  0.000000D+00 -0.714127D+01
     34  0.000000D+00  0.000000D+00 -0.298356D+01 -0.659145D+01
     35  0.000000D+00  0.000000D+00 -0.291720D+01 -0.284600D+01 -0.630119D+01
     36 -0.583345D-01  0.000000D+00  0.000000D+00  0.000000D+00  0.000000D+00
     37  0.000000D+00 -0.871120D-01  0.000000D+00  0.000000D+00  0.000000D+00
     38  0.000000D+00  0.000000D+00  0.000000D+00  0.000000D+00  0.000000D+00
     39 -0.622036D+00  0.000000D+00 -0.161300D+00 -0.456279D-01 -0.190384D-01
     40 -0.107088D+01  0.000000D+00 -0.114756D+01 -0.670820D+00 -0.581064D+00
     41  0.622036D+00  0.000000D+00 -0.161300D+00 -0.456279D-01 -0.190384D-01
     42  0.107088D+01  0.000000D+00 -0.114756D+01 -0.670820D+00 -0.581064D+00
     43 -0.991671D+00  0.000000D+00 -0.151662D+01 -0.251424D+01 -0.975448D+00
     44 -0.153900D+01  0.000000D+00 -0.287548D+01 -0.309221D+01 -0.262598D+01
     45  0.991671D+00  0.000000D+00 -0.151662D+01 -0.251424D+01 -0.975448D+00
     46  0.153900D+01  0.000000D+00 -0.287548D+01 -0.309221D+01 -0.262598D+01
               36            37            38            39            40 
     36 -0.575069D+01
     37  0.000000D+00 -0.555160D+01
     38  0.000000D+00  0.000000D+00 -0.533800D+01
     39 -0.102102D+00  0.000000D+00  0.000000D+00 -0.531170D+01
     40 -0.325621D+00  0.000000D+00  0.000000D+00 -0.379592D+01 -0.517167D+01
     41  0.102102D+00  0.000000D+00  0.000000D+00 -0.125459D+00 -0.902186D+00
     42  0.325621D+00  0.000000D+00  0.000000D+00 -0.902186D+00 -0.231752D+01
     43  0.154973D+01  0.000000D+00  0.000000D+00 -0.595970D-02 -0.260855D+00
     44  0.332558D+00  0.000000D+00  0.000000D+00 -0.260855D+00 -0.107865D+01
[...]
  31        4PY         0.00000   0.00903   0.00000   0.00000   0.00000
  32        4PZ         0.00000   0.00000   0.01637   0.00000   0.00000
  33        5XX         0.00000   0.00000   0.00000   0.00006   0.00000
  34        5YY         0.00000   0.00000   0.00000  -0.00017   0.00000
  35        5ZZ         0.00000   0.00000   0.00000   0.00014   0.00000
  36        5XY         0.00000   0.00000   0.00000   0.00000   0.00000
  37        5XZ         0.00000   0.00000   0.00000   0.00000   0.00000
  38        5YZ         0.00000   0.00000   0.00000   0.00000   0.00000
  39 3   H  1S         -0.00288  -0.00131   0.00000   0.00241  -0.00059
  40        2S         -0.00752  -0.00430   0.00000   0.00325  -0.00204
  41 4   H  1S         -0.00288  -0.00131   0.00000   0.00241  -0.00059
  42        2S         -0.00752  -0.00430   0.00000   0.00325  -0.00204
  43 5   H  1S          0.01411   0.04105   0.00000  -0.00130   0.00142
  44        2S          0.01045   0.03566   0.00000  -0.00028   0.00185
  45 6   H  1S          0.01411   0.04105   0.00000  -0.00130   0.00142
  46        2S          0.01045   0.03566   0.00000  -0.00028   0.00185
                          31        32        33        34        35
  31        4PY         0.00414
  32        4PZ         0.00000   0.00600
  33        5XX         0.00000   0.00000   0.00051
  34        5YY         0.00000   0.00000  -0.00009   0.00126
  35        5ZZ         0.00000   0.00000   0.00003  -0.00005   0.00100
  36        5XY         0.00000   0.00000   0.00000   0.00000   0.00000
  37        5XZ         0.00000   0.00000   0.00000   0.00000   0.00000
  38        5YZ         0.00000   0.00000   0.00000   0.00000   0.00000
  39 3   H  1S         -0.00142   0.00000   0.00003   0.00000   0.00000
  40        2S         -0.00304   0.00000   0.00001   0.00017   0.00006
  41 4   H  1S         -0.00142   0.00000   0.00003   0.00000   0.00000
  42        2S         -0.00304   0.00000   0.00001   0.00017   0.00006
  43 5   H  1S          0.00384   0.00000  -0.00054   0.00317  -0.00071
  44        2S          0.00654   0.00000  -0.00072   0.00215  -0.00065
  45 6   H  1S          0.00384   0.00000  -0.00054   0.00317  -0.00071
  46        2S          0.00654   0.00000  -0.00072   0.00215  -0.00065
                          36        37        38        39        40
  36        5XY         0.00188
  37        5XZ         0.00000   0.00054
  38        5YZ         0.00000   0.00000   0.00000
  39 3   H  1S          0.00010   0.00000   0.00000   0.21506
  40        2S          0.00039   0.00000   0.00000   0.09368   0.10418
  41 4   H  1S          0.00010   0.00000   0.00000  -0.00049  -0.00693
  42        2S          0.00039   0.00000   0.00000  -0.00693  -0.01889
  43 5   H  1S          0.00356   0.00000   0.00000  -0.00001  -0.00100
  44        2S          0.00072   0.00000   0.00000  -0.00100  -0.00467
  45 6   H  1S          0.00356   0.00000   0.00000   0.00000   0.00034
  46        2S          0.00072   0.00000   0.00000   0.00034   0.00325
                          41        42        43        44        45
  41 4   H  1S          0.21506
  42        2S          0.09368   0.10418
  43 5   H  1S          0.00000   0.00034   0.21506
  44        2S          0.00034   0.00325   0.09368   0.10418
  45 6   H  1S         -0.00001  -0.00100  -0.00049  -0.00693   0.21506
  46        2S         -0.00100  -0.00467  -0.00693  -0.01889   0.09368
                          46
  46        2S          0.10418
     Gross orbital populations:
                         Total     Alpha     Beta      Spin
   1 1   C  1S          1.99180   0.99590   0.99590   0.00000
   2        2S          0.70823   0.35412   0.35412   0.00000
   3        2PX         0.76617   0.38308   0.38308   0.00000
   4        2PY         0.73199   0.36600   0.36600   0.00000
   5        2PZ         0.54159   0.27079   0.27079   0.00000
   6        3S          0.59577   0.29789   0.29789   0.00000
   7        3PX         0.21359   0.10680   0.10680   0.00000
   8        3PY         0.30858   0.15429   0.15429   0.00000
   9        3PZ         0.40037   0.20018   0.20018   0.00000
  10        4S          0.00438   0.00219   0.00219   0.00000
  11        4PX         0.01778   0.00889   0.00889   0.00000
  12        4PY         0.02170   0.01085   0.01085   0.00000
  13        4PZ         0.05352   0.02676   0.02676   0.00000
  14        5XX         0.00409   0.00204   0.00204   0.00000
  15        5YY         0.01312   0.00656   0.00656   0.00000
  16        5ZZ        -0.02580  -0.01290  -0.01290   0.00000
  17        5XY         0.01469   0.00735   0.00735   0.00000
  18        5XZ         0.00452   0.00226   0.00226   0.00000
  19        5YZ         0.00000   0.00000   0.00000   0.00000
  20 2   C  1S          1.99180   0.99590   0.99590   0.00000
  21        2S          0.70823   0.35412   0.35412   0.00000
  22        2PX         0.76617   0.38308   0.38308   0.00000
  23        2PY         0.73199   0.36600   0.36600   0.00000
  24        2PZ         0.54159   0.27079   0.27079   0.00000
  25        3S          0.59577   0.29789   0.29789   0.00000
  26        3PX         0.21359   0.10680   0.10680   0.00000
  27        3PY         0.30858   0.15429   0.15429   0.00000
  28        3PZ         0.40037   0.20018   0.20018   0.00000
  29        4S          0.00438   0.00219   0.00219   0.00000
  30        4PX         0.01778   0.00889   0.00889   0.00000
  31        4PY         0.02170   0.01085   0.01085   0.00000
  32        4PZ         0.05352   0.02676   0.02676   0.00000
  33        5XX         0.00409   0.00204   0.00204   0.00000
  34        5YY         0.01312   0.00656   0.00656   0.00000
  35        5ZZ        -0.02580  -0.01290  -0.01290   0.00000
  36        5XY         0.01469   0.00735   0.00735   0.00000
  37        5XZ         0.00452   0.00226   0.00226   0.00000
  38        5YZ         0.00000   0.00000   0.00000   0.00000
  39 3   H  1S          0.52762   0.26381   0.26381   0.00000
  40        2S          0.28934   0.14467   0.14467   0.00000
  41 4   H  1S          0.52762   0.26381   0.26381   0.00000
  42        2S          0.28934   0.14467   0.14467   0.00000
  43 5   H  1S          0.52762   0.26381   0.26381   0.00000
  44        2S          0.28934   0.14467   0.14467   0.00000
  45 6   H  1S          0.52762   0.26381   0.26381   0.00000
  46        2S          0.28934   0.14467   0.14467   0.00000
          Condensed to atoms (all electrons):
              1          2          3          4          5          6
     1  C    5.006724   0.666652   0.382549   0.382549  -0.036193  -0.036193
     2  C    0.666652   5.006724  -0.036193  -0.036193   0.382549   0.382549
     3  H    0.382549  -0.036193   0.506601  -0.033236  -0.006694   0.003928
     4  H    0.382549  -0.036193  -0.033236   0.506601   0.003928  -0.006694
     5  H   -0.036193   0.382549  -0.006694   0.003928   0.506601  -0.033236
     6  H   -0.036193   0.382549   0.003928  -0.006694  -0.033236   0.506601
 Mulliken atomic charges:
              1
     1  C   -0.366090
     2  C   -0.366090
     3  H    0.183045
     4  H    0.183045
     5  H    0.183045
     6  H    0.183045
 Sum of Mulliken atomic charges =   0.00000
 Mulliken charges with hydrogens summed into heavy atoms:
              1
     1  C    0.000000
     2  C    0.000000
 Sum of Mulliken charges with hydrogens summed into heavy atoms =   0.00000
          Atomic-Atomic Spin Densities.
              1          2          3          4          5          6
     1  C    0.000000   0.000000   0.000000   0.000000   0.000000   0.000000
     2  C    0.000000   0.000000   0.000000   0.000000   0.000000   0.000000
     3  H    0.000000   0.000000   0.000000   0.000000   0.000000   0.000000
     4  H    0.000000   0.000000   0.000000   0.000000   0.000000   0.000000
     5  H    0.000000   0.000000   0.000000   0.000000   0.000000   0.000000
     6  H    0.000000   0.000000   0.000000   0.000000   0.000000   0.000000
 Mulliken atomic spin densities:
              1
     1  C    0.000000
     2  C    0.000000
     3  H    0.000000
     4  H    0.000000
     5  H    0.000000
     6  H    0.000000
 Sum of Mulliken atomic spin densities =   0.00000
 Electronic spatial extent (au):  <R**2>=             84.3974
 Charge=              0.0000 electrons
 Dipole moment (field-independent basis, Debye):
    X=              0.0000    Y=              0.0000    Z=              0.0000  Tot=              0.0000
 Quadrupole moment (field-independent basis, Debye-Ang):
   XX=            -12.4310   YY=            -12.4069   ZZ=            -16.1367
   XY=              0.0000   XZ=              0.0000   YZ=              0.0000
 Traceless Quadrupole moment (field-independent basis, Debye-Ang):
   XX=              1.2272   YY=              1.2513   ZZ=             -2.4785
   XY=              0.0000   XZ=              0.0000   YZ=              0.0000
 Octapole moment (field-independent basis, Debye-Ang**2):
  XXX=              0.0000  YYY=              0.0000  ZZZ=              0.0000  XYY=              0.0000
  XXY=              0.0000  XXZ=              0.0000  XZZ=              0.0000  YZZ=              0.0000
  YYZ=              0.0000  XYZ=              0.0000
 Hexadecapole moment (field-independent basis, Debye-Ang**3):
 XXXX=            -71.8904 YYYY=            -28.6999 ZZZZ=            -22.6140 XXXY=              0.0000
 XXXZ=              0.0000 YYYX=              0.0000 YYYZ=              0.0000 ZZZX=              0.0000
 ZZZY=              0.0000 XXYY=            -14.2471 XXZZ=            -16.8254 YYZZ=             -9.1943
 XXYZ=              0.0000 YYXZ=              0.0000 ZZXY=              0.0000
 N-N= 3.305010257302D+01 E-N=-3.708960387107D+02  KE= 1.165056797475D+02
 Orbital energies and kinetic energies (alpha):
                                 1                 2
   1         O               -10.198709         15.874670
   2         O               -10.197903         15.886916
   3         O                -0.762058          1.528101
   4         O                -0.584480          1.282450
   5         O                -0.472683          0.935689
   6         O                -0.422676          1.269327
   7         O                -0.363218          1.044446
   8         O                -0.275958          1.013628
   9         V                -0.009868          0.964247
  10         V                 0.025013          0.341841
  11         V                 0.032575          0.287581
  12         V                 0.046710          0.318913
  13         V                 0.069495          0.276679
  14         V                 0.086690          0.256486
  15         V                 0.087457          0.276571
  16         V                 0.127552          0.579681
  17         V                 0.156715          0.463791
  18         V                 0.176411          0.805631
  19         V                 0.190394          0.873071
  20         V                 0.243068          0.900889
  21         V                 0.342326          1.163279
  22         V                 0.347547          1.370110
  23         V                 0.579933          1.628930
  24         V                 0.657847          1.825206
  25         V                 0.674676          2.105349
  26         V                 0.719160          2.271293
  27         V                 0.756767          2.806941
  28         V                 0.819605          1.644781
  29         V                 0.899522          2.281414
  30         V                 0.936426          2.781924
  31         V                 0.963238          2.524763
  32         V                 1.002189          2.539086
  33         V                 1.162032          2.270936
  34         V                 1.219692          2.243611
  35         V                 1.447792          2.641587
  36         V                 1.538971          2.655089
  37         V                 1.816519          2.968520
  38         V                 1.885232          3.096124
  39         V                 1.999370          3.473802
  40         V                 2.107683          3.468351
  41         V                 2.291994          3.603283
  42         V                 2.370099          3.596066
  43         V                 2.665016          4.101753
  44         V                 2.700454          4.772240
  45         V                 4.115893         10.136617
  46         V                 4.251463         10.023462
 Orbital energies and kinetic energies (beta):
                                 1                 2
   1         O               -10.198709         15.874670
   2         O               -10.197903         15.886916
   3         O                -0.762058          1.528101
   4         O                -0.584480          1.282450
   5         O                -0.472683          0.935689
   6         O                -0.422676          1.269327
   7         O                -0.363218          1.044446
   8         O                -0.275958          1.013628
   9         V                -0.009868          0.964247
  10         V                 0.025013          0.341841
  11         V                 0.032575          0.287581
  12         V                 0.046710          0.318913
  13         V                 0.069495          0.276679
  14         V                 0.086690          0.256486
  15         V                 0.087457          0.276571
  16         V                 0.127552          0.579681
  17         V                 0.156715          0.463791
  18         V                 0.176411          0.805631
  19         V                 0.190394          0.873071
  20         V                 0.243068          0.900889
  21         V                 0.342326          1.163279
  22         V                 0.347547          1.370110
  23         V                 0.579933          1.628930
  24         V                 0.657847          1.825206
  25         V                 0.674676          2.105349
  26         V                 0.719160          2.271293
  27         V                 0.756767          2.806941
  28         V                 0.819605          1.644781
  29         V                 0.899522          2.281414
  30         V                 0.936426          2.781924
  31         V                 0.963238          2.524763
  32         V                 1.002189          2.539086
  33         V                 1.162032          2.270936
  34         V                 1.219692          2.243611
  35         V                 1.447792          2.641587
  36         V                 1.538971          2.655089
  37         V                 1.816519          2.968520
  38         V                 1.885232          3.096124
  39         V                 1.999370          3.473802
  40         V                 2.107683          3.468351
  41         V                 2.291994          3.603283
  42         V                 2.370099          3.596066
  43         V                 2.665016          4.101753
  44         V                 2.700454          4.772240
  45         V                 4.115893         10.136617
  46         V                 4.251463         10.023462
 Total kinetic energy from orbitals= 7.767045316501D+01
                          Isotropic Fermi Contact Couplings
        Atom                 a.u.       MegaHertz       Gauss      10(-4) cm-1
     1  C(13)              0.00000       0.00000       0.00000       0.00000
     2  C(13)              0.00000       0.00000       0.00000       0.00000
     3  H(1)               0.00000       0.00000       0.00000       0.00000
     4  H(1)               0.00000       0.00000       0.00000       0.00000
     5  H(1)               0.00000       0.00000       0.00000       0.00000
     6  H(1)               0.00000       0.00000       0.00000       0.00000
 --------------------------------------------------------
       Center         ----  Spin Dipole Couplings  ----
                      3XX-RR        3YY-RR        3ZZ-RR
 --------------------------------------------------------
     1   Atom        0.000000      0.000000      0.000000
     2   Atom        0.000000      0.000000      0.000000
     3   Atom        0.000000      0.000000      0.000000
     4   Atom        0.000000      0.000000      0.000000
     5   Atom        0.000000      0.000000      0.000000
     6   Atom        0.000000      0.000000      0.000000
 --------------------------------------------------------
                        XY            XZ            YZ
 --------------------------------------------------------
     1   Atom        0.000000      0.000000      0.000000
     2   Atom        0.000000      0.000000      0.000000
     3   Atom        0.000000      0.000000      0.000000
     4   Atom        0.000000      0.000000      0.000000
     5   Atom        0.000000      0.000000      0.000000
     6   Atom        0.000000      0.000000      0.000000
 --------------------------------------------------------


 ---------------------------------------------------------------------------------
              Anisotropic Spin Dipole Couplings in Principal Axis System
 ---------------------------------------------------------------------------------

       Atom             a.u.   MegaHertz   Gauss  10(-4) cm-1        Axes

              Baa     0.0000     0.000     0.000     0.000  1.0000  0.0000  0.0000
     1 C(13)  Bbb     0.0000     0.000     0.000     0.000  0.0000  1.0000  0.0000
              Bcc     0.0000     0.000     0.000     0.000  0.0000  0.0000  1.0000
 
              Baa     0.0000     0.000     0.000     0.000  1.0000  0.0000  0.0000
     2 C(13)  Bbb     0.0000     0.000     0.000     0.000  0.0000  1.0000  0.0000
              Bcc     0.0000     0.000     0.000     0.000  0.0000  0.0000  1.0000
 
              Baa     0.0000     0.000     0.000     0.000  1.0000  0.0000  0.0000
     3 H(1)   Bbb     0.0000     0.000     0.000     0.000  0.0000  1.0000  0.0000
              Bcc     0.0000     0.000     0.000     0.000  0.0000  0.0000  1.0000
 
              Baa     0.0000     0.000     0.000     0.000  1.0000  0.0000  0.0000
     4 H(1)   Bbb     0.0000     0.000     0.000     0.000  0.0000  1.0000  0.0000
              Bcc     0.0000     0.000     0.000     0.000  0.0000  0.0000  1.0000
 
              Baa     0.0000     0.000     0.000     0.000  1.0000  0.0000  0.0000
     5 H(1)   Bbb     0.0000     0.000     0.000     0.000  0.0000  1.0000  0.0000
              Bcc     0.0000     0.000     0.000     0.000  0.0000  0.0000  1.0000
 
              Baa     0.0000     0.000     0.000     0.000  1.0000  0.0000  0.0000
     6 H(1)   Bbb     0.0000     0.000     0.000     0.000  0.0000  1.0000  0.0000
              Bcc     0.0000     0.000     0.000     0.000  0.0000  0.0000  1.0000
 

 ---------------------------------------------------------------------------------


 Test job not archived.
 1\1\GINC-N22\SP\UB3LYP\6-31+G(d)\C2H4\SIM_JOBR9774\17-Feb-2018\0\\#ub3
 lyp/6-31+g* scf=tight nosymm punch=mo iop(3/33=1) pop=full\\9_11_07\\0
 ,1\C,0,0.672749,0.,0.\C,0,-0.672749,0.,0.\H,0,1.242623,0.934806,0.\H,0
 ,1.242623,-0.934806,0.\H,0,-1.242623,0.934806,0.\H,0,-1.242623,-0.9348
 06,0.\\Version=EM64L-G09RevA.01\HF=-78.5929858\S2=0.\S2-1=0.\S2A=0.\RM
 SD=1.150e-09\Dipole=0.,0.,0.\Quadrupole=0.9123648,0.9303115,-1.8426763
 ,0.,0.,0.\PG=D02H [C2"(C1.C1),SG(H4)]\\@


 ALL PAPERS THAT YOU SAVE WILL NEVER BE NEEDED UNTIL
 SUCH TIME AS THEY ARE DISPOSED OF, WHEN THEY BECOME
 ESSENTIAL.

           -- JOHN CORCORAN IN
              PAUL DICKSON'S "THE OFFICIAL RULES"
 Job cpu time:  0 days  0 hours  0 minutes  8.5 seconds.
 File lengths (MBytes):  RWF=      5 Int=      0 D2E=      0 Chk=      1 Scr=      1
 Normal termination of Gaussian 09 at Sat Feb 17 08:48:23 2018.
