 Entering Gaussian System, Link 0=/home/apps/gaussian_6_9/g09/g09
 Initial command:
 /home/apps/gaussian_6_9/g09/l1.exe /scratch/Gau-32737.inp -scrdir=/scratch/
 Entering Link 1 = /home/apps/gaussian_6_9/g09/l1.exe PID=     32738.
  
 Copyright (c) 1988,1990,1992,1993,1995,1998,2003,2009, Gaussian, Inc.
                  All Rights Reserved.
  
 This is part of the Gaussian(R) 09 program.  It is based on
 the Gaussian(R) 03 system (copyright 2003, Gaussian, Inc.),
 the Gaussian(R) 98 system (copyright 1998, Gaussian, Inc.),
 the Gaussian(R) 94 system (copyright 1995, Gaussian, Inc.),
 the Gaussian 92(TM) system (copyright 1992, Gaussian, Inc.),
 the Gaussian 90(TM) system (copyright 1990, Gaussian, Inc.),
 the Gaussian 88(TM) system (copyright 1988, Gaussian, Inc.),
 the Gaussian 86(TM) system (copyright 1986, Carnegie Mellon
 University), and the Gaussian 82(TM) system (copyright 1983,
 Carnegie Mellon University). Gaussian is a federally registered
 trademark of Gaussian, Inc.
  
 This software contains proprietary and confidential information,
 including trade secrets, belonging to Gaussian, Inc.
  
 This software is provided under written license and may be
 used, copied, transmitted, or stored only in accord with that
 written license.
  
 The following legend is applicable only to US Government
 contracts under FAR:
  
                    RESTRICTED RIGHTS LEGEND
  
 Use, reproduction and disclosure by the US Government is
 subject to restrictions as set forth in subparagraphs (a)
 and (c) of the Commercial Computer Software - Restricted
 Rights clause in FAR 52.227-19.
  
 Gaussian, Inc.
 340 Quinnipiac St., Bldg. 40, Wallingford CT 06492
  
  
 ---------------------------------------------------------------
 Warning -- This program may not be used in any manner that
 competes with the business of Gaussian, Inc. or will provide
 assistance to any competitor of Gaussian, Inc.  The licensee
 of this program is prohibited from giving any competitor of
 Gaussian, Inc. access to this program.  By using this program,
 the user acknowledges that Gaussian, Inc. is engaged in the
 business of creating and licensing software in the field of
 computational chemistry and represents and warrants to the
 licensee that it is not a competitor of Gaussian, Inc. and that
 it will not use this program in any manner prohibited above.
 ---------------------------------------------------------------
  

 Cite this work as:
 Gaussian 09, Revision A.01,
 M. J. Frisch, G. W. Trucks, H. B. Schlegel, G. E. Scuseria, 
 M. A. Robb, J. R. Cheeseman, G. Scalmani, V. Barone, B. Mennucci, 
 G. A. Petersson, H. Nakatsuji, M. Caricato, X. Li, H. P. Hratchian, 
 A. F. Izmaylov, J. Bloino, G. Zheng, J. L. Sonnenberg, M. Hada, 
 M. Ehara, K. Toyota, R. Fukuda, J. Hasegawa, M. Ishida, T. Nakajima, 
 Y. Honda, O. Kitao, H. Nakai, T. Vreven, J. A. Montgomery, Jr., 
 J. E. Peralta, F. Ogliaro, M. Bearpark, J. J. Heyd, E. Brothers, 
 K. N. Kudin, V. N. Staroverov, R. Kobayashi, J. Normand, 
 K. Raghavachari, A. Rendell, J. C. Burant, S. S. Iyengar, J. Tomasi, 
 M. Cossi, N. Rega, J. M. Millam, M. Klene, J. E. Knox, J. B. Cross, 
 V. Bakken, C. Adamo, J. Jaramillo, R. Gomperts, R. E. Stratmann, 
 O. Yazyev, A. J. Austin, R. Cammi, C. Pomelli, J. W. Ochterski, 
 R. L. Martin, K. Morokuma, V. G. Zakrzewski, G. A. Voth, 
 P. Salvador, J. J. Dannenberg, S. Dapprich, A. D. Daniels, 
 O. Farkas, J. B. Foresman, J. V. Ortiz, J. Cioslowski, 
 and D. J. Fox, Gaussian, Inc., Wallingford CT, 2009.
 
 ******************************************
 Gaussian 09:  EM64L-G09RevA.01  8-May-2009
                16-Apr-2018 
 ******************************************
 %nprocshared=2
 Will use up to    2 processors via shared memory.
 %mem=1GB
 ----------------------------------------------------------------------
 # b3lyp/6-31+g(d) nosymm geom=connectivity iop(3/33=1) punch=mo scf=ti
 ght
 ----------------------------------------------------------------------
 1/38=1,57=2/1;
 2/12=2,15=1,17=6,18=5,40=1/2;
 3/5=1,6=6,7=11,11=2,16=1,25=1,30=1,33=1,74=-5/1,2,3;
 4//1;
 5/5=2,32=2,38=5/2;
 6/7=2,8=2,9=2,10=2,28=1/1;
 99/5=1,9=1,10=32/99;
 -------
 9_11_07
 -------
 Symbolic Z-matrix:
 Charge =  0 Multiplicity = 1
 C                     0.67275   0.        0. 
 C                    -0.67275   0.        0. 
 H                     1.24262   0.93481   0. 
 H                     1.24262  -0.93481   0. 
 H                    -1.24262   0.93481   0. 
 H                    -1.24262  -0.93481   0. 
 C                     0.67275   0.        1. 
 C                    -0.67275   0.        1. 
 H                     1.24262   0.93481   1. 
 H                     1.24262  -0.93481   1. 
 H                    -1.24262   0.93481   1. 
 H                    -1.24262  -0.93481   1. 
 
                          Input orientation:                          
 ---------------------------------------------------------------------
 Center     Atomic      Atomic             Coordinates (Angstroms)
 Number     Number       Type             X           Y           Z
 ---------------------------------------------------------------------
      1          6           0        0.672749    0.000000    0.000000
      2          6           0       -0.672749    0.000000    0.000000
      3          1           0        1.242623    0.934806    0.000000
      4          1           0        1.242623   -0.934806    0.000000
      5          1           0       -1.242623    0.934806    0.000000
      6          1           0       -1.242623   -0.934806    0.000000
      7          6           0        0.672749    0.000000    1.000000
      8          6           0       -0.672749    0.000000    1.000000
      9          1           0        1.242623    0.934806    1.000000
     10          1           0        1.242623   -0.934806    1.000000
     11          1           0       -1.242623    0.934806    1.000000
     12          1           0       -1.242623   -0.934806    1.000000
 ---------------------------------------------------------------------
                    Distance matrix (angstroms):
                    1          2          3          4          5
     1  C    0.000000
     2  C    1.345498   0.000000
     3  H    1.094814   2.131317   0.000000
     4  H    1.094814   2.131317   1.869612   0.000000
     5  H    2.131317   1.094814   2.485246   3.109967   0.000000
     6  H    2.131317   1.094814   3.109967   2.485246   1.869612
     7  C    1.000000   1.676414   1.482774   1.482774   2.354254
     8  C    1.676414   1.000000   2.354254   2.354254   1.482774
     9  H    1.482774   2.354254   1.000000   2.120247   2.678889
    10  H    1.482774   2.354254   2.120247   1.000000   3.266787
    11  H    2.354254   1.482774   2.678889   3.266787   1.000000
    12  H    2.354254   1.482774   3.266787   2.678889   2.120247
                    6          7          8          9         10
     6  H    0.000000
     7  C    2.354254   0.000000
     8  C    1.482774   1.345498   0.000000
     9  H    3.266787   1.094814   2.131317   0.000000
    10  H    2.678889   1.094814   2.131317   1.869612   0.000000
    11  H    2.120247   2.131317   1.094814   2.485246   3.109967
    12  H    1.000000   2.131317   1.094814   3.109967   2.485246
                   11         12
    11  H    0.000000
    12  H    1.869612   0.000000
 Symmetry turned off by external request.
 Stoichiometry    C4H8
 Framework group  D2H[SG"(C4),X(H8)]
 Deg. of freedom     5
 Full point group                 D2H     NOp   8
 Rotational constants (GHZ):     23.9956770     12.2606665     10.4873075
 Standard basis: 6-31+G(d) (6D, 7F)
                         Coordinates in L301:                         
 ---------------------------------------------------------------------
 Center     Atomic      Atomic             Coordinates (Angstroms)
 Number     Number       Type             X           Y           Z
 ---------------------------------------------------------------------
      1          6           0        0.672749    0.000000    0.000000
      2          6           0       -0.672749    0.000000    0.000000
      3          1           0        1.242623    0.934806    0.000000
      4          1           0        1.242623   -0.934806    0.000000
      5          1           0       -1.242623    0.934806    0.000000
      6          1           0       -1.242623   -0.934806    0.000000
      7          6           0        0.672749    0.000000    1.000000
      8          6           0       -0.672749    0.000000    1.000000
      9          1           0        1.242623    0.934806    1.000000
     10          1           0        1.242623   -0.934806    1.000000
     11          1           0       -1.242623    0.934806    1.000000
     12          1           0       -1.242623   -0.934806    1.000000
 ---------------------------------------------------------------------
 FixB: optimizing general contractions.
 Ernie: Thresh=  0.10000D-02 Tol=  0.10000D-05 Strict=F.
 IA=     1 NL=   1 NS=   0.
 IA=     1 L=0 SC=0 ISt=    0 NBk=    0 NP=    0 IndPr=    0.
 IA=     1 NL=   3 NS=   2.
 IA=     1 L=1 SC=0 ISt=    0 NBk=    0 NP=    0 IndPr=    0.
 IA=     1 NL=   1 NS=   1.
 IA=     1 L=2 SC=2 ISt=    0 NBk=    0 NP=    0 IndPr=    0.
 IA=     2 NL=   1 NS=   0.
 IA=     2 L=0 SC=0 ISt=    0 NBk=    0 NP=    0 IndPr=    0.
 IA=     2 NL=   3 NS=   2.
 IA=     2 L=1 SC=0 ISt=    0 NBk=    0 NP=    0 IndPr=    0.
 IA=     2 NL=   1 NS=   1.
 IA=     2 L=2 SC=2 ISt=    0 NBk=    0 NP=    0 IndPr=    0.
 IA=     3 NL=   2 NS=   1.
 IA=     3 L=0 SC=0 ISt=    0 NBk=    0 NP=    0 IndPr=    0.
 IA=     4 NL=   2 NS=   1.
 IA=     4 L=0 SC=0 ISt=    0 NBk=    0 NP=    0 IndPr=    0.
 IA=     5 NL=   2 NS=   1.
 IA=     5 L=0 SC=0 ISt=    0 NBk=    0 NP=    0 IndPr=    0.
 IA=     6 NL=   2 NS=   1.
 IA=     6 L=0 SC=0 ISt=    0 NBk=    0 NP=    0 IndPr=    0.
 IA=     7 NL=   1 NS=   0.
 IA=     7 L=0 SC=0 ISt=    0 NBk=    0 NP=    0 IndPr=    0.
 IA=     7 NL=   3 NS=   2.
 IA=     7 L=1 SC=0 ISt=    0 NBk=    0 NP=    0 IndPr=    0.
 IA=     7 NL=   1 NS=   1.
 IA=     7 L=2 SC=2 ISt=    0 NBk=    0 NP=    0 IndPr=    0.
 IA=     8 NL=   1 NS=   0.
 IA=     8 L=0 SC=0 ISt=    0 NBk=    0 NP=    0 IndPr=    0.
 IA=     8 NL=   3 NS=   2.
 IA=     8 L=1 SC=0 ISt=    0 NBk=    0 NP=    0 IndPr=    0.
 IA=     8 NL=   1 NS=   1.
 IA=     8 L=2 SC=2 ISt=    0 NBk=    0 NP=    0 IndPr=    0.
 IA=     9 NL=   2 NS=   1.
 IA=     9 L=0 SC=0 ISt=    0 NBk=    0 NP=    0 IndPr=    0.
 IA=    10 NL=   2 NS=   1.
 IA=    10 L=0 SC=0 ISt=    0 NBk=    0 NP=    0 IndPr=    0.
 IA=    11 NL=   2 NS=   1.
 IA=    11 L=0 SC=0 ISt=    0 NBk=    0 NP=    0 IndPr=    0.
 IA=    12 NL=   2 NS=   1.
 IA=    12 L=0 SC=0 ISt=    0 NBk=    0 NP=    0 IndPr=    0.
 LdAtmC:  AtmChg=     6.000000     6.000000     1.000000     1.000000     1.000000
 LdAtmC:  AtmChg=     1.000000     6.000000     6.000000     1.000000     1.000000
 LdAtmC:  AtmChg=     1.000000     1.000000
 AtZEff=     -3.6000000     -3.6000000     -1.0000000     -1.0000000     -1.0000000
 AtZEff=     -1.0000000     -3.6000000     -3.6000000     -1.0000000     -1.0000000
 AtZEff=     -1.0000000     -1.0000000
 Integral buffers will be    131072 words long.
 Raffenetti 2 integral format.
 Two-electron integral symmetry is turned off.
    92 basis functions,   160 primitive gaussians,    92 cartesian basis functions
    16 alpha electrons       16 beta electrons
       nuclear repulsion energy       159.4012197952 Hartrees.
 NAtoms=   12 NActive=   12 NUniq=   12 SFac= 7.50D-01 NAtFMM=   80 NAOKFM=F Big=F
 NPDir=0 NMtPBC=     1 NCelOv=     1 NCel=       1 NClECP=     1 NCelD=      1
         NCelK=      1 NCelE2=     1 NClLst=     1 CellRange=     0.0.
 One-electron integrals computed using PRISM.
 Entering OneElI...
 Calculate overlap and kinetic energy integrals
    NBasis =  92  MinDer = 0  MaxDer = 0
 Requested accuracy = 0.1000D-12
 PrsmSu:  NPrtUS=   2 ThrOK=T IAlg=1
 PRISM was handed    67055103 working-precision words and   666 shell-pairs
 PRISM was handed    67055103 working-precision words and   666 shell-pairs
 IPart=  0 NShTot=         333 NBatch=          28 AvBLen=        11.9
 IPart=  1 NShTot=         333 NBatch=          28 AvBLen=        11.9
 *** Overlap *** 
                1             2             3             4             5 
      1  0.100000D+01
      2  0.219059D+00  0.100000D+01
      3  0.000000D+00  0.000000D+00  0.100000D+01
      4  0.000000D+00  0.000000D+00  0.000000D+00  0.100000D+01
      5  0.000000D+00  0.000000D+00  0.000000D+00  0.000000D+00  0.100000D+01
      6  0.184261D+00  0.812273D+00  0.000000D+00  0.000000D+00  0.000000D+00
      7  0.000000D+00  0.000000D+00  0.569754D+00  0.000000D+00  0.000000D+00
      8  0.000000D+00  0.000000D+00  0.000000D+00  0.569754D+00  0.000000D+00
      9  0.000000D+00  0.000000D+00  0.000000D+00  0.000000D+00  0.569754D+00
     10  0.697718D-01  0.402091D+00  0.000000D+00  0.000000D+00  0.000000D+00
     11  0.000000D+00  0.000000D+00  0.164679D+00  0.000000D+00  0.000000D+00
     12  0.000000D+00  0.000000D+00  0.000000D+00  0.164679D+00  0.000000D+00
     13  0.000000D+00  0.000000D+00  0.000000D+00  0.000000D+00  0.164679D+00
     14  0.791027D-01  0.710235D+00  0.000000D+00  0.000000D+00  0.000000D+00
     15  0.791027D-01  0.710235D+00  0.000000D+00  0.000000D+00  0.000000D+00
     16  0.791027D-01  0.710235D+00  0.000000D+00  0.000000D+00  0.000000D+00
     17  0.000000D+00  0.000000D+00  0.000000D+00  0.000000D+00  0.000000D+00
     18  0.000000D+00  0.000000D+00  0.000000D+00  0.000000D+00  0.000000D+00
     19  0.000000D+00  0.000000D+00  0.000000D+00  0.000000D+00  0.000000D+00
     20  0.481399D-05  0.194904D-01 -0.426713D-01  0.000000D+00  0.000000D+00
     21  0.194904D-01  0.203366D+00 -0.282219D+00  0.000000D+00  0.000000D+00
     22  0.426713D-01  0.282219D+00 -0.333594D+00  0.000000D+00  0.000000D+00
     23  0.000000D+00  0.000000D+00  0.000000D+00  0.115814D+00  0.000000D+00
     24  0.000000D+00  0.000000D+00  0.000000D+00  0.000000D+00  0.115814D+00
     25  0.643636D-01  0.359351D+00 -0.253511D+00  0.000000D+00  0.000000D+00
     26  0.129620D+00  0.562375D+00 -0.170740D+00  0.000000D+00  0.000000D+00
     27  0.000000D+00  0.000000D+00  0.000000D+00  0.242739D+00  0.000000D+00
     28  0.000000D+00  0.000000D+00  0.000000D+00  0.000000D+00  0.242739D+00
     29  0.527094D-01  0.309785D+00 -0.673317D-01  0.000000D+00  0.000000D+00
     30  0.555561D-01  0.303665D+00  0.598522D-01  0.000000D+00  0.000000D+00
     31  0.000000D+00  0.000000D+00  0.000000D+00  0.126532D+00  0.000000D+00
     32  0.000000D+00  0.000000D+00  0.000000D+00  0.000000D+00  0.126532D+00
     33  0.526767D-01  0.334402D+00 -0.413876D+00  0.000000D+00  0.000000D+00
     34  0.113280D-02  0.928256D-01 -0.142160D+00  0.000000D+00  0.000000D+00
     35  0.113280D-02  0.928256D-01 -0.142160D+00  0.000000D+00  0.000000D+00
     36  0.000000D+00  0.000000D+00  0.000000D+00  0.183392D+00  0.000000D+00
     37  0.000000D+00  0.000000D+00  0.000000D+00  0.000000D+00  0.183392D+00
     38  0.000000D+00  0.000000D+00  0.000000D+00  0.000000D+00  0.000000D+00
     39  0.320525D-01  0.270664D+00  0.190665D+00  0.312763D+00  0.000000D+00
     40  0.916644D-01  0.473962D+00  0.138279D+00  0.226830D+00  0.000000D+00
     41  0.320525D-01  0.270664D+00  0.190665D+00 -0.312763D+00  0.000000D+00
     42  0.916644D-01  0.473962D+00  0.138279D+00 -0.226830D+00  0.000000D+00
     43  0.430533D-04  0.789566D-02 -0.152645D-01  0.744992D-02  0.000000D+00
     44  0.142782D-01  0.109874D+00 -0.102096D+00  0.498287D-01  0.000000D+00
     45  0.430533D-04  0.789566D-02 -0.152645D-01 -0.744992D-02  0.000000D+00
     46  0.142782D-01  0.109874D+00 -0.102096D+00 -0.498287D-01  0.000000D+00
     47  0.525419D-03  0.784652D-01  0.000000D+00  0.000000D+00  0.135994D+00
     48  0.784652D-01  0.418405D+00  0.000000D+00  0.000000D+00  0.461228D+00
     49  0.000000D+00  0.000000D+00  0.282392D+00  0.000000D+00  0.000000D+00
     50  0.000000D+00  0.000000D+00  0.000000D+00  0.282392D+00  0.000000D+00
     51 -0.135994D+00 -0.461228D+00  0.000000D+00  0.000000D+00 -0.359882D+00
     52  0.103061D+00  0.517901D+00  0.000000D+00  0.000000D+00  0.275940D+00
     53  0.000000D+00  0.000000D+00  0.355499D+00  0.000000D+00  0.000000D+00
     54  0.000000D+00  0.000000D+00  0.000000D+00  0.355499D+00  0.000000D+00
     55 -0.154280D+00 -0.601301D+00  0.000000D+00  0.000000D+00  0.204784D-01
     56  0.597593D-01  0.348146D+00  0.000000D+00  0.000000D+00  0.563067D-01
     57  0.000000D+00  0.000000D+00  0.142372D+00  0.000000D+00  0.000000D+00
     58  0.000000D+00  0.000000D+00  0.000000D+00  0.142372D+00  0.000000D+00
     59 -0.468130D-01 -0.253627D+00  0.000000D+00  0.000000D+00  0.100927D+00
     60  0.751996D-02  0.233459D+00  0.000000D+00  0.000000D+00  0.279798D+00
     61  0.751996D-02  0.233459D+00  0.000000D+00  0.000000D+00  0.279798D+00
     62  0.212934D+00  0.528835D+00  0.000000D+00  0.000000D+00  0.436521D+00
     63  0.000000D+00  0.000000D+00  0.000000D+00  0.000000D+00  0.000000D+00
     64  0.000000D+00  0.000000D+00 -0.391018D+00  0.000000D+00  0.000000D+00
     65  0.000000D+00  0.000000D+00  0.000000D+00 -0.391018D+00  0.000000D+00
     66  0.000000D+00  0.347717D-02 -0.752269D-02  0.000000D+00  0.559100D-02
     67  0.347717D-02  0.805644D-01 -0.105899D+00  0.000000D+00  0.787063D-01
     68  0.752269D-02  0.105899D+00 -0.110886D+00  0.000000D+00  0.112541D+00
     69  0.000000D+00  0.000000D+00  0.000000D+00  0.405374D-01  0.000000D+00
     70 -0.559100D-02 -0.787063D-01  0.112541D+00  0.000000D+00 -0.431050D-01
     71  0.360071D-01  0.228706D+00 -0.158442D+00  0.000000D+00  0.117757D+00
     72  0.724994D-01  0.358626D+00 -0.106240D+00  0.000000D+00  0.191713D+00
     73  0.000000D+00  0.000000D+00  0.000000D+00  0.151709D+00  0.000000D+00
     74 -0.538829D-01 -0.266538D+00  0.191713D+00  0.000000D+00  0.922449D-02
     75  0.451454D-01  0.268221D+00 -0.582118D-01  0.000000D+00  0.432642D-01
     76  0.475834D-01  0.262934D+00  0.517477D-01  0.000000D+00  0.428436D-01
     77  0.000000D+00  0.000000D+00  0.000000D+00  0.109394D+00  0.000000D+00
     78 -0.353649D-01 -0.195418D+00  0.428436D-01  0.000000D+00  0.775515D-01
     79  0.475356D-02  0.110511D+00 -0.116822D+00  0.000000D+00  0.132877D+00
     80  0.111084D-03  0.294407D-01 -0.437571D-01  0.000000D+00  0.325211D-01
     81  0.267547D-02  0.742218D-01 -0.118344D+00  0.000000D+00  0.419021D-01
     82  0.000000D+00  0.000000D+00  0.000000D+00  0.536629D-01  0.000000D+00
     83 -0.597623D-02 -0.104361D+00  0.133939D+00  0.000000D+00 -0.755250D-01
     84  0.000000D+00  0.000000D+00  0.000000D+00 -0.398833D-01  0.000000D+00
     85  0.435027D-02  0.939160D-01  0.594027D-01  0.974426D-01  0.104238D+00
     86  0.525605D-01  0.306386D+00  0.878111D-01  0.144043D+00  0.154089D+00
     87  0.435027D-02  0.939160D-01  0.594027D-01 -0.974426D-01  0.104238D+00
     88  0.525605D-01  0.306386D+00  0.878111D-01 -0.144043D+00  0.154089D+00
     89  0.612730D-05  0.275391D-02 -0.525329D-02  0.256389D-02  0.274270D-02
     90  0.818972D-02  0.708627D-01 -0.649822D-01  0.317149D-01  0.339267D-01
     91  0.612730D-05  0.275391D-02 -0.525329D-02 -0.256389D-02  0.274270D-02
     92  0.818972D-02  0.708627D-01 -0.649822D-01 -0.317149D-01  0.339267D-01
                6             7             8             9            10 
      6  0.100000D+01
      7  0.000000D+00  0.100000D+01
      8  0.000000D+00  0.000000D+00  0.100000D+01
      9  0.000000D+00  0.000000D+00  0.000000D+00  0.100000D+01
     10  0.727666D+00  0.000000D+00  0.000000D+00  0.000000D+00  0.100000D+01
     11  0.000000D+00  0.588690D+00  0.000000D+00  0.000000D+00  0.000000D+00
     12  0.000000D+00  0.000000D+00  0.588690D+00  0.000000D+00  0.000000D+00
     13  0.000000D+00  0.000000D+00  0.000000D+00  0.588690D+00  0.000000D+00
     14  0.629936D+00  0.000000D+00  0.000000D+00  0.000000D+00  0.323540D+00
     15  0.629936D+00  0.000000D+00  0.000000D+00  0.000000D+00  0.323540D+00
     16  0.629936D+00  0.000000D+00  0.000000D+00  0.000000D+00  0.323540D+00
     17  0.000000D+00  0.000000D+00  0.000000D+00  0.000000D+00  0.000000D+00
     18  0.000000D+00  0.000000D+00  0.000000D+00  0.000000D+00  0.000000D+00
     19  0.000000D+00  0.000000D+00  0.000000D+00  0.000000D+00  0.000000D+00
     20  0.643636D-01 -0.129620D+00  0.000000D+00  0.000000D+00  0.527094D-01
     21  0.359351D+00 -0.562375D+00  0.000000D+00  0.000000D+00  0.309785D+00
     22  0.253511D+00 -0.170740D+00  0.000000D+00  0.000000D+00  0.673317D-01
     23  0.000000D+00  0.000000D+00  0.242739D+00  0.000000D+00  0.000000D+00
     24  0.000000D+00  0.000000D+00  0.000000D+00  0.242739D+00  0.000000D+00
     25  0.579631D+00 -0.605354D+00  0.000000D+00  0.000000D+00  0.581168D+00
     26  0.605354D+00 -0.525884D-01  0.000000D+00  0.000000D+00  0.250193D+00
     27  0.000000D+00  0.000000D+00  0.579631D+00  0.000000D+00  0.000000D+00
     28  0.000000D+00  0.000000D+00  0.000000D+00  0.579631D+00  0.000000D+00
     29  0.581168D+00 -0.250193D+00  0.000000D+00  0.000000D+00  0.867984D+00
     30  0.491037D+00  0.258780D+00  0.000000D+00  0.000000D+00  0.461882D+00
     31  0.000000D+00  0.000000D+00  0.470171D+00  0.000000D+00  0.000000D+00
     32  0.000000D+00  0.000000D+00  0.000000D+00  0.470171D+00  0.000000D+00
     33  0.353148D+00 -0.422973D+00  0.000000D+00  0.000000D+00  0.254635D+00
     34  0.255918D+00 -0.441451D+00  0.000000D+00  0.000000D+00  0.247363D+00
     35  0.255918D+00 -0.441451D+00  0.000000D+00  0.000000D+00  0.247363D+00
     36  0.000000D+00  0.000000D+00  0.161252D+00  0.000000D+00  0.000000D+00
     37  0.000000D+00  0.000000D+00  0.000000D+00  0.161252D+00  0.000000D+00
     38  0.000000D+00  0.000000D+00  0.000000D+00  0.000000D+00  0.000000D+00
     39  0.375116D+00  0.267879D+00  0.439422D+00  0.000000D+00  0.258482D+00
     40  0.702351D+00  0.303675D+00  0.498140D+00  0.000000D+00  0.640357D+00
     41  0.375116D+00  0.267879D+00 -0.439422D+00  0.000000D+00  0.258482D+00
     42  0.702351D+00  0.303675D+00 -0.498140D+00  0.000000D+00  0.640357D+00
     43  0.740737D-01 -0.176934D+00  0.863532D-01  0.000000D+00  0.158045D+00
     44  0.262382D+00 -0.381297D+00  0.186094D+00  0.000000D+00  0.424412D+00
     45  0.740737D-01 -0.176934D+00 -0.863532D-01  0.000000D+00  0.158045D+00
     46  0.262382D+00 -0.381297D+00 -0.186094D+00  0.000000D+00  0.424412D+00
     47  0.103061D+00  0.000000D+00  0.000000D+00  0.154280D+00  0.597593D-01
     48  0.517901D+00  0.000000D+00  0.000000D+00  0.601301D+00  0.348146D+00
     49  0.000000D+00  0.355499D+00  0.000000D+00  0.000000D+00  0.000000D+00
     50  0.000000D+00  0.000000D+00  0.355499D+00  0.000000D+00  0.000000D+00
     51 -0.275940D+00  0.000000D+00  0.000000D+00  0.204784D-01 -0.563067D-01
     52  0.739896D+00  0.000000D+00  0.000000D+00  0.574309D+00  0.642693D+00
     53  0.000000D+00  0.739896D+00  0.000000D+00  0.000000D+00  0.000000D+00
     54  0.000000D+00  0.000000D+00  0.739896D+00  0.000000D+00  0.000000D+00
     55 -0.574309D+00  0.000000D+00  0.000000D+00  0.294116D+00 -0.205634D+00
     56  0.642693D+00  0.000000D+00  0.000000D+00  0.205634D+00  0.924774D+00
     57  0.000000D+00  0.519946D+00  0.000000D+00  0.000000D+00  0.000000D+00
     58  0.000000D+00  0.000000D+00  0.519946D+00  0.000000D+00  0.000000D+00
     59 -0.403583D+00  0.000000D+00  0.000000D+00  0.390817D+00 -0.365739D+00
     60  0.383010D+00  0.000000D+00  0.000000D+00  0.491031D+00  0.278949D+00
     61  0.383010D+00  0.000000D+00  0.000000D+00  0.491031D+00  0.278949D+00
     62  0.463389D+00  0.000000D+00  0.000000D+00  0.386970D+00  0.283479D+00
     63  0.000000D+00  0.000000D+00  0.000000D+00  0.000000D+00  0.000000D+00
     64  0.000000D+00 -0.179363D+00  0.000000D+00  0.000000D+00  0.000000D+00
     65  0.000000D+00  0.000000D+00 -0.179363D+00  0.000000D+00  0.000000D+00
     66  0.360071D-01 -0.724994D-01  0.000000D+00  0.538829D-01  0.451454D-01
     67  0.228706D+00 -0.358626D+00  0.000000D+00  0.266538D+00  0.268221D+00
     68  0.158442D+00 -0.106240D+00  0.000000D+00  0.191713D+00  0.582118D-01
     69  0.000000D+00  0.000000D+00  0.151709D+00  0.000000D+00  0.000000D+00
     70 -0.117757D+00  0.191713D+00  0.000000D+00  0.922449D-02 -0.432642D-01
     71  0.428867D+00 -0.447899D+00  0.000000D+00  0.332888D+00  0.513302D+00
     72  0.447899D+00 -0.389100D-01  0.000000D+00  0.347661D+00  0.220977D+00
     73  0.000000D+00  0.000000D+00  0.428867D+00  0.000000D+00  0.000000D+00
     74 -0.332888D+00  0.347661D+00  0.000000D+00  0.170479D+00 -0.164234D+00
     75  0.513302D+00 -0.220977D+00  0.000000D+00  0.164234D+00  0.802689D+00
     76  0.433696D+00  0.228561D+00  0.000000D+00  0.138764D+00  0.427136D+00
     77  0.000000D+00  0.000000D+00  0.415267D+00  0.000000D+00  0.000000D+00
     78 -0.322331D+00  0.138764D+00  0.000000D+00  0.312135D+00 -0.317456D+00
     79  0.214719D+00 -0.257173D+00  0.000000D+00  0.275277D+00  0.219541D+00
     80  0.155601D+00 -0.268408D+00  0.000000D+00  0.199486D+00  0.213271D+00
     81  0.188256D+00 -0.324737D+00  0.000000D+00  0.157210D+00  0.216734D+00
     82  0.000000D+00  0.000000D+00  0.980435D-01  0.000000D+00  0.000000D+00
     83 -0.761016D-01  0.584054D-01  0.000000D+00  0.478715D-03 -0.807073D-02
     84  0.000000D+00  0.000000D+00 -0.728678D-01  0.000000D+00  0.000000D+00
     85  0.230738D+00  0.164516D+00  0.269868D+00  0.288688D+00  0.223118D+00
     86  0.523207D+00  0.226219D+00  0.371083D+00  0.396962D+00  0.566241D+00
     87  0.230738D+00  0.164516D+00 -0.269868D+00  0.288688D+00  0.223118D+00
     88  0.523207D+00  0.226219D+00 -0.371083D+00  0.396962D+00  0.566241D+00
     89  0.456666D-01 -0.108947D+00  0.531720D-01  0.568802D-01  0.136425D+00
     90  0.195458D+00 -0.284042D+00  0.138628D+00  0.148296D+00  0.375290D+00
     91  0.456666D-01 -0.108947D+00 -0.531720D-01  0.568802D-01  0.136425D+00
     92  0.195458D+00 -0.284042D+00 -0.138628D+00  0.148296D+00  0.375290D+00
               11            12            13            14            15 
     11  0.100000D+01
     12  0.000000D+00  0.100000D+01
     13  0.000000D+00  0.000000D+00  0.100000D+01
     14  0.000000D+00  0.000000D+00  0.000000D+00  0.100000D+01
     15  0.000000D+00  0.000000D+00  0.000000D+00  0.333333D+00  0.100000D+01
     16  0.000000D+00  0.000000D+00  0.000000D+00  0.333333D+00  0.333333D+00
     17  0.000000D+00  0.000000D+00  0.000000D+00  0.000000D+00  0.000000D+00
     18  0.000000D+00  0.000000D+00  0.000000D+00  0.000000D+00  0.000000D+00
     19  0.000000D+00  0.000000D+00  0.000000D+00  0.000000D+00  0.000000D+00
     20 -0.555561D-01  0.000000D+00  0.000000D+00  0.526767D-01  0.113280D-02
     21 -0.303665D+00  0.000000D+00  0.000000D+00  0.334402D+00  0.928256D-01
     22  0.598522D-01  0.000000D+00  0.000000D+00  0.413876D+00  0.142160D+00
     23  0.000000D+00  0.126532D+00  0.000000D+00  0.000000D+00  0.000000D+00
     24  0.000000D+00  0.000000D+00  0.126532D+00  0.000000D+00  0.000000D+00
     25 -0.491037D+00  0.000000D+00  0.000000D+00  0.353148D+00  0.255918D+00
     26  0.258780D+00  0.000000D+00  0.000000D+00  0.422973D+00  0.441451D+00
     27  0.000000D+00  0.470171D+00  0.000000D+00  0.000000D+00  0.000000D+00
     28  0.000000D+00  0.000000D+00  0.470171D+00  0.000000D+00  0.000000D+00
     29 -0.461882D+00  0.000000D+00  0.000000D+00  0.254635D+00  0.247363D+00
     30  0.622202D+00  0.000000D+00  0.000000D+00  0.229601D+00  0.249594D+00
     31  0.000000D+00  0.867984D+00  0.000000D+00  0.000000D+00  0.000000D+00
     32  0.000000D+00  0.000000D+00  0.867984D+00  0.000000D+00  0.000000D+00
     33 -0.229601D+00  0.000000D+00  0.000000D+00  0.487216D+00  0.154963D+00
     34 -0.249594D+00  0.000000D+00  0.000000D+00  0.154963D+00  0.753228D-01
     35 -0.249594D+00  0.000000D+00  0.000000D+00  0.154963D+00  0.251076D-01
     36  0.000000D+00  0.236690D-01  0.000000D+00  0.000000D+00  0.000000D+00
     37  0.000000D+00  0.000000D+00  0.236690D-01  0.000000D+00  0.000000D+00
     38  0.000000D+00  0.000000D+00  0.000000D+00  0.000000D+00  0.000000D+00
     39  0.109596D+00  0.179778D+00  0.000000D+00  0.207129D+00  0.361177D+00
     40  0.226998D+00  0.372362D+00  0.000000D+00  0.371459D+00  0.408549D+00
     41  0.109596D+00 -0.179778D+00  0.000000D+00  0.207129D+00  0.361177D+00
     42  0.226998D+00 -0.372362D+00  0.000000D+00  0.371459D+00  0.408549D+00
     43 -0.225200D+00  0.109910D+00  0.000000D+00  0.137730D-01  0.451326D-02
     44 -0.505665D+00  0.246792D+00  0.000000D+00  0.120267D+00  0.822582D-01
     45 -0.225200D+00 -0.109910D+00  0.000000D+00  0.137730D-01  0.451326D-02
     46 -0.505665D+00 -0.246792D+00  0.000000D+00  0.120267D+00  0.822582D-01
     47  0.000000D+00  0.000000D+00  0.468130D-01  0.751996D-02  0.751996D-02
     48  0.000000D+00  0.000000D+00  0.253627D+00  0.233459D+00  0.233459D+00
     49  0.142372D+00  0.000000D+00  0.000000D+00  0.000000D+00  0.000000D+00
     50  0.000000D+00  0.142372D+00  0.000000D+00  0.000000D+00  0.000000D+00
     51  0.000000D+00  0.000000D+00  0.100927D+00 -0.279798D+00 -0.279798D+00
     52  0.000000D+00  0.000000D+00  0.403583D+00  0.383010D+00  0.383010D+00
     53  0.519946D+00  0.000000D+00  0.000000D+00  0.000000D+00  0.000000D+00
     54  0.000000D+00  0.519946D+00  0.000000D+00  0.000000D+00  0.000000D+00
     55  0.000000D+00  0.000000D+00  0.390817D+00 -0.491031D+00 -0.491031D+00
     56  0.000000D+00  0.000000D+00  0.365739D+00  0.278949D+00  0.278949D+00
     57  0.924774D+00  0.000000D+00  0.000000D+00  0.000000D+00  0.000000D+00
     58  0.000000D+00  0.924774D+00  0.000000D+00  0.000000D+00  0.000000D+00
     59  0.000000D+00  0.000000D+00  0.780127D+00 -0.209190D+00 -0.209190D+00
     60  0.000000D+00  0.000000D+00  0.209190D+00  0.239686D+00  0.798953D-01
     61  0.000000D+00  0.000000D+00  0.209190D+00  0.798953D-01  0.239686D+00
     62  0.000000D+00  0.000000D+00  0.189681D+00  0.308144D+00  0.308144D+00
     63  0.000000D+00  0.000000D+00  0.000000D+00  0.000000D+00  0.000000D+00
     64 -0.198375D-01  0.000000D+00  0.000000D+00  0.000000D+00  0.000000D+00
     65  0.000000D+00 -0.198375D-01  0.000000D+00  0.000000D+00  0.000000D+00
     66 -0.475834D-01  0.000000D+00  0.353649D-01  0.475356D-02  0.111084D-03
     67 -0.262934D+00  0.000000D+00  0.195418D+00  0.110511D+00  0.294407D-01
     68  0.517477D-01  0.000000D+00  0.428436D-01  0.116822D+00  0.437571D-01
     69  0.000000D+00  0.109394D+00  0.000000D+00  0.000000D+00  0.000000D+00
     70  0.428436D-01  0.000000D+00  0.775515D-01 -0.132877D+00 -0.325211D-01
     71 -0.433696D+00  0.000000D+00  0.322331D+00  0.214719D+00  0.155601D+00
     72  0.228561D+00  0.000000D+00  0.138764D+00  0.257173D+00  0.268408D+00
     73  0.000000D+00  0.415267D+00  0.000000D+00  0.000000D+00  0.000000D+00
     74  0.138764D+00  0.000000D+00  0.312135D+00 -0.275277D+00 -0.199486D+00
     75 -0.427136D+00  0.000000D+00  0.317456D+00  0.219541D+00  0.213271D+00
     76  0.575396D+00  0.000000D+00  0.168928D+00  0.197957D+00  0.215195D+00
     77  0.000000D+00  0.802689D+00  0.000000D+00  0.000000D+00  0.000000D+00
     78  0.168928D+00  0.000000D+00  0.677138D+00 -0.164639D+00 -0.159937D+00
     79 -0.197957D+00  0.000000D+00  0.164639D+00  0.116779D+00  0.371424D-01
     80 -0.215195D+00  0.000000D+00  0.159937D+00  0.371424D-01  0.180538D-01
     81 -0.218689D+00  0.000000D+00  0.145021D+00  0.143253D+00  0.232103D-01
     82  0.000000D+00  0.204069D-01  0.000000D+00  0.000000D+00  0.000000D+00
     83 -0.702327D-02  0.000000D+00  0.143545D-01 -0.167154D+00 -0.400663D-01
     84  0.000000D+00 -0.151668D-01  0.000000D+00  0.000000D+00  0.000000D+00
     85  0.945982D-01  0.155176D+00  0.165998D+00  0.547315D-01  0.930948D-01
     86  0.200725D+00  0.329264D+00  0.352227D+00  0.230012D+00  0.252979D+00
     87  0.945982D-01 -0.155176D+00  0.165998D+00  0.547315D-01  0.930948D-01
     88  0.200725D+00 -0.329264D+00  0.352227D+00  0.230012D+00  0.252979D+00
     89 -0.194386D+00  0.948711D-01  0.101487D+00  0.384974D-02  0.126296D-02
     90 -0.447138D+00  0.218228D+00  0.233447D+00  0.744710D-01  0.509353D-01
     91 -0.194386D+00 -0.948711D-01  0.101487D+00  0.384974D-02  0.126296D-02
     92 -0.447138D+00 -0.218228D+00  0.233447D+00  0.744710D-01  0.509353D-01
               16            17            18            19            20 
     16  0.100000D+01
     17  0.000000D+00  0.100000D+01
     18  0.000000D+00  0.000000D+00  0.100000D+01
     19  0.000000D+00  0.000000D+00  0.000000D+00  0.100000D+01
     20  0.113280D-02  0.000000D+00  0.000000D+00  0.000000D+00  0.100000D+01
     21  0.928256D-01  0.000000D+00  0.000000D+00  0.000000D+00  0.219059D+00
     22  0.142160D+00  0.000000D+00  0.000000D+00  0.000000D+00  0.000000D+00
     23  0.000000D+00 -0.183392D+00  0.000000D+00  0.000000D+00  0.000000D+00
     24  0.000000D+00  0.000000D+00 -0.183392D+00  0.000000D+00  0.000000D+00
     25  0.255918D+00  0.000000D+00  0.000000D+00  0.000000D+00  0.184261D+00
     26  0.441451D+00  0.000000D+00  0.000000D+00  0.000000D+00  0.000000D+00
     27  0.000000D+00 -0.161252D+00  0.000000D+00  0.000000D+00  0.000000D+00
     28  0.000000D+00  0.000000D+00 -0.161252D+00  0.000000D+00  0.000000D+00
     29  0.247363D+00  0.000000D+00  0.000000D+00  0.000000D+00  0.697718D-01
     30  0.249594D+00  0.000000D+00  0.000000D+00  0.000000D+00  0.000000D+00
     31  0.000000D+00 -0.236690D-01  0.000000D+00  0.000000D+00  0.000000D+00
     32  0.000000D+00  0.000000D+00 -0.236690D-01  0.000000D+00  0.000000D+00
     33  0.154963D+00  0.000000D+00  0.000000D+00  0.000000D+00  0.791027D-01
     34  0.251076D-01  0.000000D+00  0.000000D+00  0.000000D+00  0.791027D-01
     35  0.753228D-01  0.000000D+00  0.000000D+00  0.000000D+00  0.791027D-01
     36  0.000000D+00 -0.314243D+00  0.000000D+00  0.000000D+00  0.000000D+00
     37  0.000000D+00  0.000000D+00 -0.314243D+00  0.000000D+00  0.000000D+00
     38  0.000000D+00  0.000000D+00  0.000000D+00  0.753228D-01  0.000000D+00
     39  0.116021D+00  0.258857D+00  0.000000D+00  0.000000D+00  0.430533D-04
     40  0.349523D+00  0.623253D-01  0.000000D+00  0.000000D+00  0.142782D-01
     41  0.116021D+00 -0.258857D+00  0.000000D+00  0.000000D+00  0.430533D-04
     42  0.349523D+00 -0.623253D-01  0.000000D+00  0.000000D+00  0.142782D-01
     43  0.161797D-02 -0.102751D-01  0.000000D+00  0.000000D+00  0.320525D-01
     44  0.703737D-01 -0.421768D-01  0.000000D+00  0.000000D+00  0.916644D-01
     45  0.161797D-02  0.102751D-01  0.000000D+00  0.000000D+00  0.320525D-01
     46  0.703737D-01  0.421768D-01  0.000000D+00  0.000000D+00  0.916644D-01
     47  0.212934D+00  0.000000D+00  0.000000D+00  0.000000D+00  0.000000D+00
     48  0.528835D+00  0.000000D+00  0.000000D+00  0.000000D+00  0.347717D-02
     49  0.000000D+00  0.000000D+00  0.391018D+00  0.000000D+00 -0.752269D-02
     50  0.000000D+00  0.000000D+00  0.000000D+00  0.391018D+00  0.000000D+00
     51 -0.436521D+00  0.000000D+00  0.000000D+00  0.000000D+00 -0.559100D-02
     52  0.463389D+00  0.000000D+00  0.000000D+00  0.000000D+00  0.360071D-01
     53  0.000000D+00  0.000000D+00  0.179363D+00  0.000000D+00 -0.724994D-01
     54  0.000000D+00  0.000000D+00  0.000000D+00  0.179363D+00  0.000000D+00
     55 -0.386970D+00  0.000000D+00  0.000000D+00  0.000000D+00 -0.538829D-01
     56  0.283479D+00  0.000000D+00  0.000000D+00  0.000000D+00  0.451454D-01
     57  0.000000D+00  0.000000D+00  0.198375D-01  0.000000D+00 -0.475834D-01
     58  0.000000D+00  0.000000D+00  0.000000D+00  0.198375D-01  0.000000D+00
     59 -0.189681D+00  0.000000D+00  0.000000D+00  0.000000D+00 -0.353649D-01
     60  0.308144D+00  0.000000D+00  0.000000D+00  0.000000D+00  0.475356D-02
     61  0.308144D+00  0.000000D+00  0.000000D+00  0.000000D+00  0.111084D-03
     62  0.435262D+00  0.000000D+00  0.000000D+00  0.000000D+00  0.267547D-02
     63  0.000000D+00  0.239686D+00  0.000000D+00  0.000000D+00  0.000000D+00
     64  0.000000D+00  0.000000D+00 -0.445061D+00  0.000000D+00  0.597623D-02
     65  0.000000D+00  0.000000D+00  0.000000D+00 -0.445061D+00  0.000000D+00
     66  0.267547D-02  0.000000D+00 -0.597623D-02  0.000000D+00  0.525419D-03
     67  0.742218D-01  0.000000D+00 -0.104361D+00  0.000000D+00  0.784652D-01
     68  0.118344D+00  0.000000D+00 -0.133939D+00  0.000000D+00  0.000000D+00
     69  0.000000D+00 -0.536629D-01  0.000000D+00  0.398833D-01  0.000000D+00
     70 -0.419021D-01  0.000000D+00  0.755250D-01  0.000000D+00 -0.135994D+00
     71  0.188256D+00  0.000000D+00 -0.761016D-01  0.000000D+00  0.103061D+00
     72  0.324737D+00  0.000000D+00 -0.584054D-01  0.000000D+00  0.000000D+00
     73  0.000000D+00 -0.980435D-01  0.000000D+00  0.728678D-01  0.000000D+00
     74 -0.157210D+00  0.000000D+00 -0.478715D-03  0.000000D+00 -0.154280D+00
     75  0.216734D+00  0.000000D+00 -0.807073D-02  0.000000D+00  0.597593D-01
     76  0.218689D+00  0.000000D+00  0.702327D-02  0.000000D+00  0.000000D+00
     77  0.000000D+00 -0.204069D-01  0.000000D+00  0.151668D-01  0.000000D+00
     78 -0.145021D+00  0.000000D+00 -0.143545D-01  0.000000D+00 -0.468130D-01
     79  0.143253D+00  0.000000D+00 -0.167154D+00  0.000000D+00  0.751996D-02
     80  0.232103D-01  0.000000D+00 -0.400663D-01  0.000000D+00  0.751996D-02
     81  0.327851D-01  0.000000D+00 -0.743972D-01  0.000000D+00  0.212934D+00
     82  0.000000D+00 -0.753195D-01  0.000000D+00  0.693969D-01  0.000000D+00
     83 -0.743972D-01  0.000000D+00  0.139857D+00  0.000000D+00  0.000000D+00
     84  0.000000D+00  0.693969D-01  0.000000D+00 -0.335233D-01  0.000000D+00
     85  0.101907D+00  0.644645D-01  0.689603D-01  0.113121D+00  0.612730D-05
     86  0.258255D+00  0.385926D-01  0.412841D-01  0.677213D-01  0.818972D-02
     87  0.101907D+00 -0.644645D-01  0.689603D-01 -0.113121D+00  0.612730D-05
     88  0.258255D+00 -0.385926D-01  0.412841D-01 -0.677213D-01  0.818972D-02
     89  0.137970D-02 -0.287043D-02 -0.307061D-02  0.149863D-02  0.435027D-02
     90  0.519976D-01 -0.261164D-01 -0.279378D-01  0.136352D-01  0.525605D-01
     91  0.137970D-02  0.287043D-02 -0.307061D-02 -0.149863D-02  0.435027D-02
     92  0.519976D-01  0.261164D-01 -0.279378D-01 -0.136352D-01  0.525605D-01
               21            22            23            24            25 
     21  0.100000D+01
     22  0.000000D+00  0.100000D+01
     23  0.000000D+00  0.000000D+00  0.100000D+01
     24  0.000000D+00  0.000000D+00  0.000000D+00  0.100000D+01
     25  0.812273D+00  0.000000D+00  0.000000D+00  0.000000D+00  0.100000D+01
     26  0.000000D+00  0.569754D+00  0.000000D+00  0.000000D+00  0.000000D+00
     27  0.000000D+00  0.000000D+00  0.569754D+00  0.000000D+00  0.000000D+00
     28  0.000000D+00  0.000000D+00  0.000000D+00  0.569754D+00  0.000000D+00
     29  0.402091D+00  0.000000D+00  0.000000D+00  0.000000D+00  0.727666D+00
     30  0.000000D+00  0.164679D+00  0.000000D+00  0.000000D+00  0.000000D+00
     31  0.000000D+00  0.000000D+00  0.164679D+00  0.000000D+00  0.000000D+00
     32  0.000000D+00  0.000000D+00  0.000000D+00  0.164679D+00  0.000000D+00
     33  0.710235D+00  0.000000D+00  0.000000D+00  0.000000D+00  0.629936D+00
     34  0.710235D+00  0.000000D+00  0.000000D+00  0.000000D+00  0.629936D+00
     35  0.710235D+00  0.000000D+00  0.000000D+00  0.000000D+00  0.629936D+00
     36  0.000000D+00  0.000000D+00  0.000000D+00  0.000000D+00  0.000000D+00
     37  0.000000D+00  0.000000D+00  0.000000D+00  0.000000D+00  0.000000D+00
     38  0.000000D+00  0.000000D+00  0.000000D+00  0.000000D+00  0.000000D+00
     39  0.789566D-02  0.152645D-01  0.744992D-02  0.000000D+00  0.740737D-01
     40  0.109874D+00  0.102096D+00  0.498287D-01  0.000000D+00  0.262382D+00
     41  0.789566D-02  0.152645D-01 -0.744992D-02  0.000000D+00  0.740737D-01
     42  0.109874D+00  0.102096D+00 -0.498287D-01  0.000000D+00  0.262382D+00
     43  0.270664D+00 -0.190665D+00  0.312763D+00  0.000000D+00  0.375116D+00
     44  0.473962D+00 -0.138279D+00  0.226830D+00  0.000000D+00  0.702351D+00
     45  0.270664D+00 -0.190665D+00 -0.312763D+00  0.000000D+00  0.375116D+00
     46  0.473962D+00 -0.138279D+00 -0.226830D+00  0.000000D+00  0.702351D+00
     47  0.347717D-02  0.752269D-02  0.000000D+00  0.559100D-02  0.360071D-01
     48  0.805644D-01  0.105899D+00  0.000000D+00  0.787063D-01  0.228706D+00
     49 -0.105899D+00 -0.110886D+00  0.000000D+00 -0.112541D+00 -0.158442D+00
     50  0.000000D+00  0.000000D+00  0.405374D-01  0.000000D+00  0.000000D+00
     51 -0.787063D-01 -0.112541D+00  0.000000D+00 -0.431050D-01 -0.117757D+00
     52  0.228706D+00  0.158442D+00  0.000000D+00  0.117757D+00  0.428867D+00
     53 -0.358626D+00 -0.106240D+00  0.000000D+00 -0.191713D+00 -0.447899D+00
     54  0.000000D+00  0.000000D+00  0.151709D+00  0.000000D+00  0.000000D+00
     55 -0.266538D+00 -0.191713D+00  0.000000D+00  0.922449D-02 -0.332888D+00
     56  0.268221D+00  0.582118D-01  0.000000D+00  0.432642D-01  0.513302D+00
     57 -0.262934D+00  0.517477D-01  0.000000D+00 -0.428436D-01 -0.433696D+00
     58  0.000000D+00  0.000000D+00  0.109394D+00  0.000000D+00  0.000000D+00
     59 -0.195418D+00 -0.428436D-01  0.000000D+00  0.775515D-01 -0.322331D+00
     60  0.110511D+00  0.116822D+00  0.000000D+00  0.132877D+00  0.214719D+00
     61  0.294407D-01  0.437571D-01  0.000000D+00  0.325211D-01  0.155601D+00
     62  0.742218D-01  0.118344D+00  0.000000D+00  0.419021D-01  0.188256D+00
     63  0.000000D+00  0.000000D+00 -0.536629D-01  0.000000D+00  0.000000D+00
     64  0.104361D+00  0.133939D+00  0.000000D+00  0.755250D-01  0.761016D-01
     65  0.000000D+00  0.000000D+00 -0.398833D-01  0.000000D+00  0.000000D+00
     66  0.784652D-01  0.000000D+00  0.000000D+00  0.135994D+00  0.103061D+00
     67  0.418405D+00  0.000000D+00  0.000000D+00  0.461228D+00  0.517901D+00
     68  0.000000D+00  0.282392D+00  0.000000D+00  0.000000D+00  0.000000D+00
     69  0.000000D+00  0.000000D+00  0.282392D+00  0.000000D+00  0.000000D+00
     70 -0.461228D+00  0.000000D+00  0.000000D+00 -0.359882D+00 -0.275940D+00
     71  0.517901D+00  0.000000D+00  0.000000D+00  0.275940D+00  0.739896D+00
     72  0.000000D+00  0.355499D+00  0.000000D+00  0.000000D+00  0.000000D+00
     73  0.000000D+00  0.000000D+00  0.355499D+00  0.000000D+00  0.000000D+00
     74 -0.601301D+00  0.000000D+00  0.000000D+00  0.204784D-01 -0.574309D+00
     75  0.348146D+00  0.000000D+00  0.000000D+00  0.563067D-01  0.642693D+00
     76  0.000000D+00  0.142372D+00  0.000000D+00  0.000000D+00  0.000000D+00
     77  0.000000D+00  0.000000D+00  0.142372D+00  0.000000D+00  0.000000D+00
     78 -0.253627D+00  0.000000D+00  0.000000D+00  0.100927D+00 -0.403583D+00
     79  0.233459D+00  0.000000D+00  0.000000D+00  0.279798D+00  0.383010D+00
     80  0.233459D+00  0.000000D+00  0.000000D+00  0.279798D+00  0.383010D+00
     81  0.528835D+00  0.000000D+00  0.000000D+00  0.436521D+00  0.463389D+00
     82  0.000000D+00  0.000000D+00  0.000000D+00  0.000000D+00  0.000000D+00
     83  0.000000D+00 -0.391018D+00  0.000000D+00  0.000000D+00  0.000000D+00
     84  0.000000D+00  0.000000D+00 -0.391018D+00  0.000000D+00  0.000000D+00
     85  0.275391D-02  0.525329D-02  0.256389D-02  0.274270D-02  0.456666D-01
     86  0.708627D-01  0.649822D-01  0.317149D-01  0.339267D-01  0.195458D+00
     87  0.275391D-02  0.525329D-02 -0.256389D-02  0.274270D-02  0.456666D-01
     88  0.708627D-01  0.649822D-01 -0.317149D-01  0.339267D-01  0.195458D+00
     89  0.939160D-01 -0.594027D-01  0.974426D-01  0.104238D+00  0.230738D+00
     90  0.306386D+00 -0.878111D-01  0.144043D+00  0.154089D+00  0.523207D+00
     91  0.939160D-01 -0.594027D-01 -0.974426D-01  0.104238D+00  0.230738D+00
     92  0.306386D+00 -0.878111D-01 -0.144043D+00  0.154089D+00  0.523207D+00
               26            27            28            29            30 
     26  0.100000D+01
     27  0.000000D+00  0.100000D+01
     28  0.000000D+00  0.000000D+00  0.100000D+01
     29  0.000000D+00  0.000000D+00  0.000000D+00  0.100000D+01
     30  0.588690D+00  0.000000D+00  0.000000D+00  0.000000D+00  0.100000D+01
     31  0.000000D+00  0.588690D+00  0.000000D+00  0.000000D+00  0.000000D+00
     32  0.000000D+00  0.000000D+00  0.588690D+00  0.000000D+00  0.000000D+00
     33  0.000000D+00  0.000000D+00  0.000000D+00  0.323540D+00  0.000000D+00
     34  0.000000D+00  0.000000D+00  0.000000D+00  0.323540D+00  0.000000D+00
     35  0.000000D+00  0.000000D+00  0.000000D+00  0.323540D+00  0.000000D+00
     36  0.000000D+00  0.000000D+00  0.000000D+00  0.000000D+00  0.000000D+00
     37  0.000000D+00  0.000000D+00  0.000000D+00  0.000000D+00  0.000000D+00
     38  0.000000D+00  0.000000D+00  0.000000D+00  0.000000D+00  0.000000D+00
     39  0.176934D+00  0.863532D-01  0.000000D+00  0.158045D+00  0.225200D+00
     40  0.381297D+00  0.186094D+00  0.000000D+00  0.424412D+00  0.505665D+00
     41  0.176934D+00 -0.863532D-01  0.000000D+00  0.158045D+00  0.225200D+00
     42  0.381297D+00 -0.186094D+00  0.000000D+00  0.424412D+00  0.505665D+00
     43 -0.267879D+00  0.439422D+00  0.000000D+00  0.258482D+00 -0.109596D+00
     44 -0.303675D+00  0.498140D+00  0.000000D+00  0.640357D+00 -0.226998D+00
     45 -0.267879D+00 -0.439422D+00  0.000000D+00  0.258482D+00 -0.109596D+00
     46 -0.303675D+00 -0.498140D+00  0.000000D+00  0.640357D+00 -0.226998D+00
     47  0.724994D-01  0.000000D+00  0.538829D-01  0.451454D-01  0.475834D-01
     48  0.358626D+00  0.000000D+00  0.266538D+00  0.268221D+00  0.262934D+00
     49 -0.106240D+00  0.000000D+00 -0.191713D+00 -0.582118D-01  0.517477D-01
     50  0.000000D+00  0.151709D+00  0.000000D+00  0.000000D+00  0.000000D+00
     51 -0.191713D+00  0.000000D+00  0.922449D-02 -0.432642D-01 -0.428436D-01
     52  0.447899D+00  0.000000D+00  0.332888D+00  0.513302D+00  0.433696D+00
     53 -0.389100D-01  0.000000D+00 -0.347661D+00 -0.220977D+00  0.228561D+00
     54  0.000000D+00  0.428867D+00  0.000000D+00  0.000000D+00  0.000000D+00
     55 -0.347661D+00  0.000000D+00  0.170479D+00 -0.164234D+00 -0.138764D+00
     56  0.220977D+00  0.000000D+00  0.164234D+00  0.802689D+00  0.427136D+00
     57  0.228561D+00  0.000000D+00 -0.138764D+00 -0.427136D+00  0.575396D+00
     58  0.000000D+00  0.415267D+00  0.000000D+00  0.000000D+00  0.000000D+00
     59 -0.138764D+00  0.000000D+00  0.312135D+00 -0.317456D+00 -0.168928D+00
     60  0.257173D+00  0.000000D+00  0.275277D+00  0.219541D+00  0.197957D+00
     61  0.268408D+00  0.000000D+00  0.199486D+00  0.213271D+00  0.215195D+00
     62  0.324737D+00  0.000000D+00  0.157210D+00  0.216734D+00  0.218689D+00
     63  0.000000D+00 -0.980435D-01  0.000000D+00  0.000000D+00  0.000000D+00
     64  0.584054D-01  0.000000D+00 -0.478715D-03  0.807073D-02 -0.702327D-02
     65  0.000000D+00 -0.728678D-01  0.000000D+00  0.000000D+00  0.000000D+00
     66  0.000000D+00  0.000000D+00  0.154280D+00  0.597593D-01  0.000000D+00
     67  0.000000D+00  0.000000D+00  0.601301D+00  0.348146D+00  0.000000D+00
     68  0.355499D+00  0.000000D+00  0.000000D+00  0.000000D+00  0.142372D+00
     69  0.000000D+00  0.355499D+00  0.000000D+00  0.000000D+00  0.000000D+00
     70  0.000000D+00  0.000000D+00  0.204784D-01 -0.563067D-01  0.000000D+00
     71  0.000000D+00  0.000000D+00  0.574309D+00  0.642693D+00  0.000000D+00
     72  0.739896D+00  0.000000D+00  0.000000D+00  0.000000D+00  0.519946D+00
     73  0.000000D+00  0.739896D+00  0.000000D+00  0.000000D+00  0.000000D+00
     74  0.000000D+00  0.000000D+00  0.294116D+00 -0.205634D+00  0.000000D+00
     75  0.000000D+00  0.000000D+00  0.205634D+00  0.924774D+00  0.000000D+00
     76  0.519946D+00  0.000000D+00  0.000000D+00  0.000000D+00  0.924774D+00
     77  0.000000D+00  0.519946D+00  0.000000D+00  0.000000D+00  0.000000D+00
     78  0.000000D+00  0.000000D+00  0.390817D+00 -0.365739D+00  0.000000D+00
     79  0.000000D+00  0.000000D+00  0.491031D+00  0.278949D+00  0.000000D+00
     80  0.000000D+00  0.000000D+00  0.491031D+00  0.278949D+00  0.000000D+00
     81  0.000000D+00  0.000000D+00  0.386970D+00  0.283479D+00  0.000000D+00
     82  0.000000D+00  0.000000D+00  0.000000D+00  0.000000D+00  0.000000D+00
     83 -0.179363D+00  0.000000D+00  0.000000D+00  0.000000D+00 -0.198375D-01
     84  0.000000D+00 -0.179363D+00  0.000000D+00  0.000000D+00  0.000000D+00
     85  0.108947D+00  0.531720D-01  0.568802D-01  0.136425D+00  0.194386D+00
     86  0.284042D+00  0.138628D+00  0.148296D+00  0.375290D+00  0.447138D+00
     87  0.108947D+00 -0.531720D-01  0.568802D-01  0.136425D+00  0.194386D+00
     88  0.284042D+00 -0.138628D+00  0.148296D+00  0.375290D+00  0.447138D+00
     89 -0.164516D+00  0.269868D+00  0.288688D+00  0.223118D+00 -0.945982D-01
     90 -0.226219D+00  0.371083D+00  0.396962D+00  0.566241D+00 -0.200725D+00
     91 -0.164516D+00 -0.269868D+00  0.288688D+00  0.223118D+00 -0.945982D-01
     92 -0.226219D+00 -0.371083D+00  0.396962D+00  0.566241D+00 -0.200725D+00
               31            32            33            34            35 
     31  0.100000D+01
     32  0.000000D+00  0.100000D+01
     33  0.000000D+00  0.000000D+00  0.100000D+01
     34  0.000000D+00  0.000000D+00  0.333333D+00  0.100000D+01
     35  0.000000D+00  0.000000D+00  0.333333D+00  0.333333D+00  0.100000D+01
     36  0.000000D+00  0.000000D+00  0.000000D+00  0.000000D+00  0.000000D+00
     37  0.000000D+00  0.000000D+00  0.000000D+00  0.000000D+00  0.000000D+00
     38  0.000000D+00  0.000000D+00  0.000000D+00  0.000000D+00  0.000000D+00
     39  0.109910D+00  0.000000D+00  0.137730D-01  0.451326D-02  0.161797D-02
     40  0.246792D+00  0.000000D+00  0.120267D+00  0.822582D-01  0.703737D-01
     41 -0.109910D+00  0.000000D+00  0.137730D-01  0.451326D-02  0.161797D-02
     42 -0.246792D+00  0.000000D+00  0.120267D+00  0.822582D-01  0.703737D-01
     43  0.179778D+00  0.000000D+00  0.207129D+00  0.361177D+00  0.116021D+00
     44  0.372362D+00  0.000000D+00  0.371459D+00  0.408549D+00  0.349523D+00
     45 -0.179778D+00  0.000000D+00  0.207129D+00  0.361177D+00  0.116021D+00
     46 -0.372362D+00  0.000000D+00  0.371459D+00  0.408549D+00  0.349523D+00
     47  0.000000D+00  0.353649D-01  0.475356D-02  0.111084D-03  0.267547D-02
     48  0.000000D+00  0.195418D+00  0.110511D+00  0.294407D-01  0.742218D-01
     49  0.000000D+00 -0.428436D-01 -0.116822D+00 -0.437571D-01 -0.118344D+00
     50  0.109394D+00  0.000000D+00  0.000000D+00  0.000000D+00  0.000000D+00
     51  0.000000D+00  0.775515D-01 -0.132877D+00 -0.325211D-01 -0.419021D-01
     52  0.000000D+00  0.322331D+00  0.214719D+00  0.155601D+00  0.188256D+00
     53  0.000000D+00 -0.138764D+00 -0.257173D+00 -0.268408D+00 -0.324737D+00
     54  0.415267D+00  0.000000D+00  0.000000D+00  0.000000D+00  0.000000D+00
     55  0.000000D+00  0.312135D+00 -0.275277D+00 -0.199486D+00 -0.157210D+00
     56  0.000000D+00  0.317456D+00  0.219541D+00  0.213271D+00  0.216734D+00
     57  0.000000D+00 -0.168928D+00 -0.197957D+00 -0.215195D+00 -0.218689D+00
     58  0.802689D+00  0.000000D+00  0.000000D+00  0.000000D+00  0.000000D+00
     59  0.000000D+00  0.677138D+00 -0.164639D+00 -0.159937D+00 -0.145021D+00
     60  0.000000D+00  0.164639D+00  0.116779D+00  0.371424D-01  0.143253D+00
     61  0.000000D+00  0.159937D+00  0.371424D-01  0.180538D-01  0.232103D-01
     62  0.000000D+00  0.145021D+00  0.143253D+00  0.232103D-01  0.327851D-01
     63 -0.204069D-01  0.000000D+00  0.000000D+00  0.000000D+00  0.000000D+00
     64  0.000000D+00 -0.143545D-01  0.167154D+00  0.400663D-01  0.743972D-01
     65 -0.151668D-01  0.000000D+00  0.000000D+00  0.000000D+00  0.000000D+00
     66  0.000000D+00  0.468130D-01  0.751996D-02  0.751996D-02  0.212934D+00
     67  0.000000D+00  0.253627D+00  0.233459D+00  0.233459D+00  0.528835D+00
     68  0.000000D+00  0.000000D+00  0.000000D+00  0.000000D+00  0.000000D+00
     69  0.142372D+00  0.000000D+00  0.000000D+00  0.000000D+00  0.000000D+00
     70  0.000000D+00  0.100927D+00 -0.279798D+00 -0.279798D+00 -0.436521D+00
     71  0.000000D+00  0.403583D+00  0.383010D+00  0.383010D+00  0.463389D+00
     72  0.000000D+00  0.000000D+00  0.000000D+00  0.000000D+00  0.000000D+00
     73  0.519946D+00  0.000000D+00  0.000000D+00  0.000000D+00  0.000000D+00
     74  0.000000D+00  0.390817D+00 -0.491031D+00 -0.491031D+00 -0.386970D+00
     75  0.000000D+00  0.365739D+00  0.278949D+00  0.278949D+00  0.283479D+00
     76  0.000000D+00  0.000000D+00  0.000000D+00  0.000000D+00  0.000000D+00
     77  0.924774D+00  0.000000D+00  0.000000D+00  0.000000D+00  0.000000D+00
     78  0.000000D+00  0.780127D+00 -0.209190D+00 -0.209190D+00 -0.189681D+00
     79  0.000000D+00  0.209190D+00  0.239686D+00  0.798953D-01  0.308144D+00
     80  0.000000D+00  0.209190D+00  0.798953D-01  0.239686D+00  0.308144D+00
     81  0.000000D+00  0.189681D+00  0.308144D+00  0.308144D+00  0.435262D+00
     82  0.000000D+00  0.000000D+00  0.000000D+00  0.000000D+00  0.000000D+00
     83  0.000000D+00  0.000000D+00  0.000000D+00  0.000000D+00  0.000000D+00
     84 -0.198375D-01  0.000000D+00  0.000000D+00  0.000000D+00  0.000000D+00
     85  0.948711D-01  0.101487D+00  0.384974D-02  0.126296D-02  0.137970D-02
     86  0.218228D+00  0.233447D+00  0.744710D-01  0.509353D-01  0.519976D-01
     87 -0.948711D-01  0.101487D+00  0.384974D-02  0.126296D-02  0.137970D-02
     88 -0.218228D+00  0.233447D+00  0.744710D-01  0.509353D-01  0.519976D-01
     89  0.155176D+00  0.165998D+00  0.547315D-01  0.930948D-01  0.101907D+00
     90  0.329264D+00  0.352227D+00  0.230012D+00  0.252979D+00  0.258255D+00
     91 -0.155176D+00  0.165998D+00  0.547315D-01  0.930948D-01  0.101907D+00
     92 -0.329264D+00  0.352227D+00  0.230012D+00  0.252979D+00  0.258255D+00
               36            37            38            39            40 
     36  0.100000D+01
     37  0.000000D+00  0.100000D+01
     38  0.000000D+00  0.000000D+00  0.100000D+01
     39  0.102751D-01  0.000000D+00  0.000000D+00  0.100000D+01
     40  0.421768D-01  0.000000D+00  0.000000D+00  0.658292D+00  0.100000D+01
     41 -0.102751D-01  0.000000D+00  0.000000D+00  0.125798D-01  0.128011D+00
     42 -0.421768D-01  0.000000D+00  0.000000D+00  0.128011D+00  0.365469D+00
     43 -0.258857D+00  0.000000D+00  0.000000D+00  0.571644D-03  0.366357D-01
     44 -0.623253D-01  0.000000D+00  0.000000D+00  0.366357D-01  0.168873D+00
     45  0.258857D+00  0.000000D+00  0.000000D+00  0.104764D-04  0.720595D-02
     46  0.623253D-01  0.000000D+00  0.000000D+00  0.720595D-02  0.617177D-01
     47  0.000000D+00  0.597623D-02  0.000000D+00  0.435027D-02  0.525605D-01
     48  0.000000D+00  0.104361D+00  0.000000D+00  0.939160D-01  0.306386D+00
     49  0.000000D+00 -0.133939D+00  0.000000D+00  0.594027D-01  0.878111D-01
     50  0.536629D-01  0.000000D+00  0.398833D-01  0.974426D-01  0.144043D+00
     51  0.000000D+00 -0.755250D-01  0.000000D+00 -0.104238D+00 -0.154089D+00
     52  0.000000D+00  0.761016D-01  0.000000D+00  0.230738D+00  0.523207D+00
     53  0.000000D+00 -0.584054D-01  0.000000D+00  0.164516D+00  0.226219D+00
     54  0.980435D-01  0.000000D+00  0.728678D-01  0.269868D+00  0.371083D+00
     55  0.000000D+00  0.478715D-03  0.000000D+00 -0.288688D+00 -0.396962D+00
     56  0.000000D+00  0.807073D-02  0.000000D+00  0.223118D+00  0.566241D+00
     57  0.000000D+00  0.702327D-02  0.000000D+00  0.945982D-01  0.200725D+00
     58  0.204069D-01  0.000000D+00  0.151668D-01  0.155176D+00  0.329264D+00
     59  0.000000D+00  0.143545D-01  0.000000D+00 -0.165998D+00 -0.352227D+00
     60  0.000000D+00  0.167154D+00  0.000000D+00  0.547315D-01  0.230012D+00
     61  0.000000D+00  0.400663D-01  0.000000D+00  0.930948D-01  0.252979D+00
     62  0.000000D+00  0.743972D-01  0.000000D+00  0.101907D+00  0.258255D+00
     63 -0.753195D-01  0.000000D+00 -0.693969D-01  0.644645D-01  0.385926D-01
     64  0.000000D+00  0.139857D+00  0.000000D+00 -0.689603D-01 -0.412841D-01
     65 -0.693969D-01  0.000000D+00 -0.335233D-01 -0.113121D+00 -0.677213D-01
     66  0.000000D+00  0.000000D+00  0.000000D+00  0.612730D-05  0.818972D-02
     67  0.000000D+00  0.000000D+00  0.000000D+00  0.275391D-02  0.708627D-01
     68  0.000000D+00  0.391018D+00  0.000000D+00  0.525329D-02  0.649822D-01
     69  0.000000D+00  0.000000D+00  0.391018D+00  0.256389D-02  0.317149D-01
     70  0.000000D+00  0.000000D+00  0.000000D+00 -0.274270D-02 -0.339267D-01
     71  0.000000D+00  0.000000D+00  0.000000D+00  0.456666D-01  0.195458D+00
     72  0.000000D+00  0.179363D+00  0.000000D+00  0.108947D+00  0.284042D+00
     73  0.000000D+00  0.000000D+00  0.179363D+00  0.531720D-01  0.138628D+00
     74  0.000000D+00  0.000000D+00  0.000000D+00 -0.568802D-01 -0.148296D+00
     75  0.000000D+00  0.000000D+00  0.000000D+00  0.136425D+00  0.375290D+00
     76  0.000000D+00  0.198375D-01  0.000000D+00  0.194386D+00  0.447138D+00
     77  0.000000D+00  0.000000D+00  0.198375D-01  0.948711D-01  0.218228D+00
     78  0.000000D+00  0.000000D+00  0.000000D+00 -0.101487D+00 -0.233447D+00
     79  0.000000D+00  0.000000D+00  0.000000D+00  0.384974D-02  0.744710D-01
     80  0.000000D+00  0.000000D+00  0.000000D+00  0.126296D-02  0.509353D-01
     81  0.000000D+00  0.000000D+00  0.000000D+00  0.137970D-02  0.519976D-01
     82  0.239686D+00  0.000000D+00  0.000000D+00  0.287043D-02  0.261164D-01
     83  0.000000D+00 -0.445061D+00  0.000000D+00 -0.307061D-02 -0.279378D-01
     84  0.000000D+00  0.000000D+00 -0.445061D+00 -0.149863D-02 -0.136352D-01
     85  0.287043D-02  0.307061D-02  0.149863D-02  0.253307D+00  0.411720D+00
     86  0.261164D-01  0.279378D-01  0.136352D-01  0.411720D+00  0.749787D+00
     87 -0.287043D-02  0.307061D-02 -0.149863D-02  0.394691D-02  0.802398D-01
     88 -0.261164D-01  0.279378D-01 -0.136352D-01  0.802398D-01  0.274024D+00
     89 -0.644645D-01 -0.689603D-01  0.113121D+00  0.181851D-03  0.229952D-01
     90 -0.385926D-01 -0.412841D-01  0.677213D-01  0.229952D-01  0.126618D+00
     91  0.644645D-01 -0.689603D-01 -0.113121D+00  0.334001D-05  0.452932D-02
     92  0.385926D-01 -0.412841D-01 -0.677213D-01  0.452932D-02  0.462751D-01
               41            42            43            44            45 
     41  0.100000D+01
     42  0.658292D+00  0.100000D+01
     43  0.104764D-04  0.720595D-02  0.100000D+01
     44  0.720595D-02  0.617177D-01  0.658292D+00  0.100000D+01
     45  0.571644D-03  0.366357D-01  0.125798D-01  0.128011D+00  0.100000D+01
     46  0.366357D-01  0.168873D+00  0.128011D+00  0.365469D+00  0.658292D+00
     47  0.435027D-02  0.525605D-01  0.612730D-05  0.818972D-02  0.612730D-05
     48  0.939160D-01  0.306386D+00  0.275391D-02  0.708627D-01  0.275391D-02
     49  0.594027D-01  0.878111D-01 -0.525329D-02 -0.649822D-01 -0.525329D-02
     50 -0.974426D-01 -0.144043D+00  0.256389D-02  0.317149D-01 -0.256389D-02
     51 -0.104238D+00 -0.154089D+00 -0.274270D-02 -0.339267D-01 -0.274270D-02
     52  0.230738D+00  0.523207D+00  0.456666D-01  0.195458D+00  0.456666D-01
     53  0.164516D+00  0.226219D+00 -0.108947D+00 -0.284042D+00 -0.108947D+00
     54 -0.269868D+00 -0.371083D+00  0.531720D-01  0.138628D+00 -0.531720D-01
     55 -0.288688D+00 -0.396962D+00 -0.568802D-01 -0.148296D+00 -0.568802D-01
     56  0.223118D+00  0.566241D+00  0.136425D+00  0.375290D+00  0.136425D+00
     57  0.945982D-01  0.200725D+00 -0.194386D+00 -0.447138D+00 -0.194386D+00
     58 -0.155176D+00 -0.329264D+00  0.948711D-01  0.218228D+00 -0.948711D-01
     59 -0.165998D+00 -0.352227D+00 -0.101487D+00 -0.233447D+00 -0.101487D+00
     60  0.547315D-01  0.230012D+00  0.384974D-02  0.744710D-01  0.384974D-02
     61  0.930948D-01  0.252979D+00  0.126296D-02  0.509353D-01  0.126296D-02
     62  0.101907D+00  0.258255D+00  0.137970D-02  0.519976D-01  0.137970D-02
     63 -0.644645D-01 -0.385926D-01 -0.287043D-02 -0.261164D-01  0.287043D-02
     64 -0.689603D-01 -0.412841D-01  0.307061D-02  0.279378D-01  0.307061D-02
     65  0.113121D+00  0.677213D-01 -0.149863D-02 -0.136352D-01  0.149863D-02
     66  0.612730D-05  0.818972D-02  0.435027D-02  0.525605D-01  0.435027D-02
     67  0.275391D-02  0.708627D-01  0.939160D-01  0.306386D+00  0.939160D-01
     68  0.525329D-02  0.649822D-01 -0.594027D-01 -0.878111D-01 -0.594027D-01
     69 -0.256389D-02 -0.317149D-01  0.974426D-01  0.144043D+00 -0.974426D-01
     70 -0.274270D-02 -0.339267D-01 -0.104238D+00 -0.154089D+00 -0.104238D+00
     71  0.456666D-01  0.195458D+00  0.230738D+00  0.523207D+00  0.230738D+00
     72  0.108947D+00  0.284042D+00 -0.164516D+00 -0.226219D+00 -0.164516D+00
     73 -0.531720D-01 -0.138628D+00  0.269868D+00  0.371083D+00 -0.269868D+00
     74 -0.568802D-01 -0.148296D+00 -0.288688D+00 -0.396962D+00 -0.288688D+00
     75  0.136425D+00  0.375290D+00  0.223118D+00  0.566241D+00  0.223118D+00
     76  0.194386D+00  0.447138D+00 -0.945982D-01 -0.200725D+00 -0.945982D-01
     77 -0.948711D-01 -0.218228D+00  0.155176D+00  0.329264D+00 -0.155176D+00
     78 -0.101487D+00 -0.233447D+00 -0.165998D+00 -0.352227D+00 -0.165998D+00
     79  0.384974D-02  0.744710D-01  0.547315D-01  0.230012D+00  0.547315D-01
     80  0.126296D-02  0.509353D-01  0.930948D-01  0.252979D+00  0.930948D-01
     81  0.137970D-02  0.519976D-01  0.101907D+00  0.258255D+00  0.101907D+00
     82 -0.287043D-02 -0.261164D-01 -0.644645D-01 -0.385926D-01  0.644645D-01
     83 -0.307061D-02 -0.279378D-01  0.689603D-01  0.412841D-01  0.689603D-01
     84  0.149863D-02  0.136352D-01 -0.113121D+00 -0.677213D-01  0.113121D+00
     85  0.394691D-02  0.802398D-01  0.181851D-03  0.229952D-01  0.334001D-05
     86  0.802398D-01  0.274024D+00  0.229952D-01  0.126618D+00  0.452932D-02
     87  0.253307D+00  0.411720D+00  0.334001D-05  0.452932D-02  0.181851D-03
     88  0.411720D+00  0.749787D+00  0.452932D-02  0.462751D-01  0.229952D-01
     89  0.334001D-05  0.452932D-02  0.253307D+00  0.411720D+00  0.394691D-02
     90  0.452932D-02  0.462751D-01  0.411720D+00  0.749787D+00  0.802398D-01
     91  0.181851D-03  0.229952D-01  0.394691D-02  0.802398D-01  0.253307D+00
     92  0.229952D-01  0.126618D+00  0.802398D-01  0.274024D+00  0.411720D+00
               46            47            48            49            50 
     46  0.100000D+01
     47  0.818972D-02  0.100000D+01
     48  0.708627D-01  0.219059D+00  0.100000D+01
     49 -0.649822D-01  0.000000D+00  0.000000D+00  0.100000D+01
     50 -0.317149D-01  0.000000D+00  0.000000D+00  0.000000D+00  0.100000D+01
     51 -0.339267D-01  0.000000D+00  0.000000D+00  0.000000D+00  0.000000D+00
     52  0.195458D+00  0.184261D+00  0.812273D+00  0.000000D+00  0.000000D+00
     53 -0.284042D+00  0.000000D+00  0.000000D+00  0.569754D+00  0.000000D+00
     54 -0.138628D+00  0.000000D+00  0.000000D+00  0.000000D+00  0.569754D+00
     55 -0.148296D+00  0.000000D+00  0.000000D+00  0.000000D+00  0.000000D+00
     56  0.375290D+00  0.697718D-01  0.402091D+00  0.000000D+00  0.000000D+00
     57 -0.447138D+00  0.000000D+00  0.000000D+00  0.164679D+00  0.000000D+00
     58 -0.218228D+00  0.000000D+00  0.000000D+00  0.000000D+00  0.164679D+00
     59 -0.233447D+00  0.000000D+00  0.000000D+00  0.000000D+00  0.000000D+00
     60  0.744710D-01  0.791027D-01  0.710235D+00  0.000000D+00  0.000000D+00
     61  0.509353D-01  0.791027D-01  0.710235D+00  0.000000D+00  0.000000D+00
     62  0.519976D-01  0.791027D-01  0.710235D+00  0.000000D+00  0.000000D+00
     63  0.261164D-01  0.000000D+00  0.000000D+00  0.000000D+00  0.000000D+00
     64  0.279378D-01  0.000000D+00  0.000000D+00  0.000000D+00  0.000000D+00
     65  0.136352D-01  0.000000D+00  0.000000D+00  0.000000D+00  0.000000D+00
     66  0.525605D-01  0.481399D-05  0.194904D-01 -0.426713D-01  0.000000D+00
     67  0.306386D+00  0.194904D-01  0.203366D+00 -0.282219D+00  0.000000D+00
     68 -0.878111D-01  0.426713D-01  0.282219D+00 -0.333594D+00  0.000000D+00
     69 -0.144043D+00  0.000000D+00  0.000000D+00  0.000000D+00  0.115814D+00
     70 -0.154089D+00  0.000000D+00  0.000000D+00  0.000000D+00  0.000000D+00
     71  0.523207D+00  0.643636D-01  0.359351D+00 -0.253511D+00  0.000000D+00
     72 -0.226219D+00  0.129620D+00  0.562375D+00 -0.170740D+00  0.000000D+00
     73 -0.371083D+00  0.000000D+00  0.000000D+00  0.000000D+00  0.242739D+00
     74 -0.396962D+00  0.000000D+00  0.000000D+00  0.000000D+00  0.000000D+00
     75  0.566241D+00  0.527094D-01  0.309785D+00 -0.673317D-01  0.000000D+00
     76 -0.200725D+00  0.555561D-01  0.303665D+00  0.598522D-01  0.000000D+00
     77 -0.329264D+00  0.000000D+00  0.000000D+00  0.000000D+00  0.126532D+00
     78 -0.352227D+00  0.000000D+00  0.000000D+00  0.000000D+00  0.000000D+00
     79  0.230012D+00  0.526767D-01  0.334402D+00 -0.413876D+00  0.000000D+00
     80  0.252979D+00  0.113280D-02  0.928256D-01 -0.142160D+00  0.000000D+00
     81  0.258255D+00  0.113280D-02  0.928256D-01 -0.142160D+00  0.000000D+00
     82  0.385926D-01  0.000000D+00  0.000000D+00  0.000000D+00  0.183392D+00
     83  0.412841D-01  0.000000D+00  0.000000D+00  0.000000D+00  0.000000D+00
     84  0.677213D-01  0.000000D+00  0.000000D+00  0.000000D+00  0.000000D+00
     85  0.452932D-02  0.320525D-01  0.270664D+00  0.190665D+00  0.312763D+00
     86  0.462751D-01  0.916644D-01  0.473962D+00  0.138279D+00  0.226830D+00
     87  0.229952D-01  0.320525D-01  0.270664D+00  0.190665D+00 -0.312763D+00
     88  0.126618D+00  0.916644D-01  0.473962D+00  0.138279D+00 -0.226830D+00
     89  0.802398D-01  0.430533D-04  0.789566D-02 -0.152645D-01  0.744992D-02
     90  0.274024D+00  0.142782D-01  0.109874D+00 -0.102096D+00  0.498287D-01
     91  0.411720D+00  0.430533D-04  0.789566D-02 -0.152645D-01 -0.744992D-02
     92  0.749787D+00  0.142782D-01  0.109874D+00 -0.102096D+00 -0.498287D-01
               51            52            53            54            55 
     51  0.100000D+01
     52  0.000000D+00  0.100000D+01
     53  0.000000D+00  0.000000D+00  0.100000D+01
     54  0.000000D+00  0.000000D+00  0.000000D+00  0.100000D+01
     55  0.569754D+00  0.000000D+00  0.000000D+00  0.000000D+00  0.100000D+01
     56  0.000000D+00  0.727666D+00  0.000000D+00  0.000000D+00  0.000000D+00
     57  0.000000D+00  0.000000D+00  0.588690D+00  0.000000D+00  0.000000D+00
     58  0.000000D+00  0.000000D+00  0.000000D+00  0.588690D+00  0.000000D+00
     59  0.164679D+00  0.000000D+00  0.000000D+00  0.000000D+00  0.588690D+00
     60  0.000000D+00  0.629936D+00  0.000000D+00  0.000000D+00  0.000000D+00
     61  0.000000D+00  0.629936D+00  0.000000D+00  0.000000D+00  0.000000D+00
     62  0.000000D+00  0.629936D+00  0.000000D+00  0.000000D+00  0.000000D+00
     63  0.000000D+00  0.000000D+00  0.000000D+00  0.000000D+00  0.000000D+00
     64  0.000000D+00  0.000000D+00  0.000000D+00  0.000000D+00  0.000000D+00
     65  0.000000D+00  0.000000D+00  0.000000D+00  0.000000D+00  0.000000D+00
     66  0.000000D+00  0.643636D-01 -0.129620D+00  0.000000D+00  0.000000D+00
     67  0.000000D+00  0.359351D+00 -0.562375D+00  0.000000D+00  0.000000D+00
     68  0.000000D+00  0.253511D+00 -0.170740D+00  0.000000D+00  0.000000D+00
     69  0.000000D+00  0.000000D+00  0.000000D+00  0.242739D+00  0.000000D+00
     70  0.115814D+00  0.000000D+00  0.000000D+00  0.000000D+00  0.242739D+00
     71  0.000000D+00  0.579631D+00 -0.605354D+00  0.000000D+00  0.000000D+00
     72  0.000000D+00  0.605354D+00 -0.525884D-01  0.000000D+00  0.000000D+00
     73  0.000000D+00  0.000000D+00  0.000000D+00  0.579631D+00  0.000000D+00
     74  0.242739D+00  0.000000D+00  0.000000D+00  0.000000D+00  0.579631D+00
     75  0.000000D+00  0.581168D+00 -0.250193D+00  0.000000D+00  0.000000D+00
     76  0.000000D+00  0.491037D+00  0.258780D+00  0.000000D+00  0.000000D+00
     77  0.000000D+00  0.000000D+00  0.000000D+00  0.470171D+00  0.000000D+00
     78  0.126532D+00  0.000000D+00  0.000000D+00  0.000000D+00  0.470171D+00
     79  0.000000D+00  0.353148D+00 -0.422973D+00  0.000000D+00  0.000000D+00
     80  0.000000D+00  0.255918D+00 -0.441451D+00  0.000000D+00  0.000000D+00
     81  0.000000D+00  0.255918D+00 -0.441451D+00  0.000000D+00  0.000000D+00
     82  0.000000D+00  0.000000D+00  0.000000D+00  0.161252D+00  0.000000D+00
     83  0.183392D+00  0.000000D+00  0.000000D+00  0.000000D+00  0.161252D+00
     84  0.000000D+00  0.000000D+00  0.000000D+00  0.000000D+00  0.000000D+00
     85  0.000000D+00  0.375116D+00  0.267879D+00  0.439422D+00  0.000000D+00
     86  0.000000D+00  0.702351D+00  0.303675D+00  0.498140D+00  0.000000D+00
     87  0.000000D+00  0.375116D+00  0.267879D+00 -0.439422D+00  0.000000D+00
     88  0.000000D+00  0.702351D+00  0.303675D+00 -0.498140D+00  0.000000D+00
     89  0.000000D+00  0.740737D-01 -0.176934D+00  0.863532D-01  0.000000D+00
     90  0.000000D+00  0.262382D+00 -0.381297D+00  0.186094D+00  0.000000D+00
     91  0.000000D+00  0.740737D-01 -0.176934D+00 -0.863532D-01  0.000000D+00
     92  0.000000D+00  0.262382D+00 -0.381297D+00 -0.186094D+00  0.000000D+00
               56            57            58            59            60 
     56  0.100000D+01
     57  0.000000D+00  0.100000D+01
     58  0.000000D+00  0.000000D+00  0.100000D+01
     59  0.000000D+00  0.000000D+00  0.000000D+00  0.100000D+01
     60  0.323540D+00  0.000000D+00  0.000000D+00  0.000000D+00  0.100000D+01
     61  0.323540D+00  0.000000D+00  0.000000D+00  0.000000D+00  0.333333D+00
     62  0.323540D+00  0.000000D+00  0.000000D+00  0.000000D+00  0.333333D+00
     63  0.000000D+00  0.000000D+00  0.000000D+00  0.000000D+00  0.000000D+00
     64  0.000000D+00  0.000000D+00  0.000000D+00  0.000000D+00  0.000000D+00
     65  0.000000D+00  0.000000D+00  0.000000D+00  0.000000D+00  0.000000D+00
     66  0.527094D-01 -0.555561D-01  0.000000D+00  0.000000D+00  0.526767D-01
     67  0.309785D+00 -0.303665D+00  0.000000D+00  0.000000D+00  0.334402D+00
     68  0.673317D-01  0.598522D-01  0.000000D+00  0.000000D+00  0.413876D+00
     69  0.000000D+00  0.000000D+00  0.126532D+00  0.000000D+00  0.000000D+00
     70  0.000000D+00  0.000000D+00  0.000000D+00  0.126532D+00  0.000000D+00
     71  0.581168D+00 -0.491037D+00  0.000000D+00  0.000000D+00  0.353148D+00
     72  0.250193D+00  0.258780D+00  0.000000D+00  0.000000D+00  0.422973D+00
     73  0.000000D+00  0.000000D+00  0.470171D+00  0.000000D+00  0.000000D+00
     74  0.000000D+00  0.000000D+00  0.000000D+00  0.470171D+00  0.000000D+00
     75  0.867984D+00 -0.461882D+00  0.000000D+00  0.000000D+00  0.254635D+00
     76  0.461882D+00  0.622202D+00  0.000000D+00  0.000000D+00  0.229601D+00
     77  0.000000D+00  0.000000D+00  0.867984D+00  0.000000D+00  0.000000D+00
     78  0.000000D+00  0.000000D+00  0.000000D+00  0.867984D+00  0.000000D+00
     79  0.254635D+00 -0.229601D+00  0.000000D+00  0.000000D+00  0.487216D+00
     80  0.247363D+00 -0.249594D+00  0.000000D+00  0.000000D+00  0.154963D+00
     81  0.247363D+00 -0.249594D+00  0.000000D+00  0.000000D+00  0.154963D+00
     82  0.000000D+00  0.000000D+00  0.236690D-01  0.000000D+00  0.000000D+00
     83  0.000000D+00  0.000000D+00  0.000000D+00  0.236690D-01  0.000000D+00
     84  0.000000D+00  0.000000D+00  0.000000D+00  0.000000D+00  0.000000D+00
     85  0.258482D+00  0.109596D+00  0.179778D+00  0.000000D+00  0.207129D+00
     86  0.640357D+00  0.226998D+00  0.372362D+00  0.000000D+00  0.371459D+00
     87  0.258482D+00  0.109596D+00 -0.179778D+00  0.000000D+00  0.207129D+00
     88  0.640357D+00  0.226998D+00 -0.372362D+00  0.000000D+00  0.371459D+00
     89  0.158045D+00 -0.225200D+00  0.109910D+00  0.000000D+00  0.137730D-01
     90  0.424412D+00 -0.505665D+00  0.246792D+00  0.000000D+00  0.120267D+00
     91  0.158045D+00 -0.225200D+00 -0.109910D+00  0.000000D+00  0.137730D-01
     92  0.424412D+00 -0.505665D+00 -0.246792D+00  0.000000D+00  0.120267D+00
               61            62            63            64            65 
     61  0.100000D+01
     62  0.333333D+00  0.100000D+01
     63  0.000000D+00  0.000000D+00  0.100000D+01
     64  0.000000D+00  0.000000D+00  0.000000D+00  0.100000D+01
     65  0.000000D+00  0.000000D+00  0.000000D+00  0.000000D+00  0.100000D+01
     66  0.113280D-02  0.113280D-02  0.000000D+00  0.000000D+00  0.000000D+00
     67  0.928256D-01  0.928256D-01  0.000000D+00  0.000000D+00  0.000000D+00
     68  0.142160D+00  0.142160D+00  0.000000D+00  0.000000D+00  0.000000D+00
     69  0.000000D+00  0.000000D+00 -0.183392D+00  0.000000D+00  0.000000D+00
     70  0.000000D+00  0.000000D+00  0.000000D+00 -0.183392D+00  0.000000D+00
     71  0.255918D+00  0.255918D+00  0.000000D+00  0.000000D+00  0.000000D+00
     72  0.441451D+00  0.441451D+00  0.000000D+00  0.000000D+00  0.000000D+00
     73  0.000000D+00  0.000000D+00 -0.161252D+00  0.000000D+00  0.000000D+00
     74  0.000000D+00  0.000000D+00  0.000000D+00 -0.161252D+00  0.000000D+00
     75  0.247363D+00  0.247363D+00  0.000000D+00  0.000000D+00  0.000000D+00
     76  0.249594D+00  0.249594D+00  0.000000D+00  0.000000D+00  0.000000D+00
     77  0.000000D+00  0.000000D+00 -0.236690D-01  0.000000D+00  0.000000D+00
     78  0.000000D+00  0.000000D+00  0.000000D+00 -0.236690D-01  0.000000D+00
     79  0.154963D+00  0.154963D+00  0.000000D+00  0.000000D+00  0.000000D+00
     80  0.753228D-01  0.251076D-01  0.000000D+00  0.000000D+00  0.000000D+00
     81  0.251076D-01  0.753228D-01  0.000000D+00  0.000000D+00  0.000000D+00
     82  0.000000D+00  0.000000D+00 -0.314243D+00  0.000000D+00  0.000000D+00
     83  0.000000D+00  0.000000D+00  0.000000D+00 -0.314243D+00  0.000000D+00
     84  0.000000D+00  0.000000D+00  0.000000D+00  0.000000D+00  0.753228D-01
     85  0.361177D+00  0.116021D+00  0.258857D+00  0.000000D+00  0.000000D+00
     86  0.408549D+00  0.349523D+00  0.623253D-01  0.000000D+00  0.000000D+00
     87  0.361177D+00  0.116021D+00 -0.258857D+00  0.000000D+00  0.000000D+00
     88  0.408549D+00  0.349523D+00 -0.623253D-01  0.000000D+00  0.000000D+00
     89  0.451326D-02  0.161797D-02 -0.102751D-01  0.000000D+00  0.000000D+00
     90  0.822582D-01  0.703737D-01 -0.421768D-01  0.000000D+00  0.000000D+00
     91  0.451326D-02  0.161797D-02  0.102751D-01  0.000000D+00  0.000000D+00
     92  0.822582D-01  0.703737D-01  0.421768D-01  0.000000D+00  0.000000D+00
               66            67            68            69            70 
     66  0.100000D+01
     67  0.219059D+00  0.100000D+01
     68  0.000000D+00  0.000000D+00  0.100000D+01
     69  0.000000D+00  0.000000D+00  0.000000D+00  0.100000D+01
     70  0.000000D+00  0.000000D+00  0.000000D+00  0.000000D+00  0.100000D+01
     71  0.184261D+00  0.812273D+00  0.000000D+00  0.000000D+00  0.000000D+00
     72  0.000000D+00  0.000000D+00  0.569754D+00  0.000000D+00  0.000000D+00
     73  0.000000D+00  0.000000D+00  0.000000D+00  0.569754D+00  0.000000D+00
     74  0.000000D+00  0.000000D+00  0.000000D+00  0.000000D+00  0.569754D+00
     75  0.697718D-01  0.402091D+00  0.000000D+00  0.000000D+00  0.000000D+00
     76  0.000000D+00  0.000000D+00  0.164679D+00  0.000000D+00  0.000000D+00
     77  0.000000D+00  0.000000D+00  0.000000D+00  0.164679D+00  0.000000D+00
     78  0.000000D+00  0.000000D+00  0.000000D+00  0.000000D+00  0.164679D+00
     79  0.791027D-01  0.710235D+00  0.000000D+00  0.000000D+00  0.000000D+00
     80  0.791027D-01  0.710235D+00  0.000000D+00  0.000000D+00  0.000000D+00
     81  0.791027D-01  0.710235D+00  0.000000D+00  0.000000D+00  0.000000D+00
     82  0.000000D+00  0.000000D+00  0.000000D+00  0.000000D+00  0.000000D+00
     83  0.000000D+00  0.000000D+00  0.000000D+00  0.000000D+00  0.000000D+00
     84  0.000000D+00  0.000000D+00  0.000000D+00  0.000000D+00  0.000000D+00
     85  0.430533D-04  0.789566D-02  0.152645D-01  0.744992D-02  0.000000D+00
     86  0.142782D-01  0.109874D+00  0.102096D+00  0.498287D-01  0.000000D+00
     87  0.430533D-04  0.789566D-02  0.152645D-01 -0.744992D-02  0.000000D+00
     88  0.142782D-01  0.109874D+00  0.102096D+00 -0.498287D-01  0.000000D+00
     89  0.320525D-01  0.270664D+00 -0.190665D+00  0.312763D+00  0.000000D+00
     90  0.916644D-01  0.473962D+00 -0.138279D+00  0.226830D+00  0.000000D+00
     91  0.320525D-01  0.270664D+00 -0.190665D+00 -0.312763D+00  0.000000D+00
     92  0.916644D-01  0.473962D+00 -0.138279D+00 -0.226830D+00  0.000000D+00
               71            72            73            74            75 
     71  0.100000D+01
     72  0.000000D+00  0.100000D+01
     73  0.000000D+00  0.000000D+00  0.100000D+01
     74  0.000000D+00  0.000000D+00  0.000000D+00  0.100000D+01
     75  0.727666D+00  0.000000D+00  0.000000D+00  0.000000D+00  0.100000D+01
     76  0.000000D+00  0.588690D+00  0.000000D+00  0.000000D+00  0.000000D+00
     77  0.000000D+00  0.000000D+00  0.588690D+00  0.000000D+00  0.000000D+00
     78  0.000000D+00  0.000000D+00  0.000000D+00  0.588690D+00  0.000000D+00
     79  0.629936D+00  0.000000D+00  0.000000D+00  0.000000D+00  0.323540D+00
     80  0.629936D+00  0.000000D+00  0.000000D+00  0.000000D+00  0.323540D+00
     81  0.629936D+00  0.000000D+00  0.000000D+00  0.000000D+00  0.323540D+00
     82  0.000000D+00  0.000000D+00  0.000000D+00  0.000000D+00  0.000000D+00
     83  0.000000D+00  0.000000D+00  0.000000D+00  0.000000D+00  0.000000D+00
     84  0.000000D+00  0.000000D+00  0.000000D+00  0.000000D+00  0.000000D+00
     85  0.740737D-01  0.176934D+00  0.863532D-01  0.000000D+00  0.158045D+00
     86  0.262382D+00  0.381297D+00  0.186094D+00  0.000000D+00  0.424412D+00
     87  0.740737D-01  0.176934D+00 -0.863532D-01  0.000000D+00  0.158045D+00
     88  0.262382D+00  0.381297D+00 -0.186094D+00  0.000000D+00  0.424412D+00
     89  0.375116D+00 -0.267879D+00  0.439422D+00  0.000000D+00  0.258482D+00
     90  0.702351D+00 -0.303675D+00  0.498140D+00  0.000000D+00  0.640357D+00
     91  0.375116D+00 -0.267879D+00 -0.439422D+00  0.000000D+00  0.258482D+00
     92  0.702351D+00 -0.303675D+00 -0.498140D+00  0.000000D+00  0.640357D+00
               76            77            78            79            80 
     76  0.100000D+01
     77  0.000000D+00  0.100000D+01
     78  0.000000D+00  0.000000D+00  0.100000D+01
     79  0.000000D+00  0.000000D+00  0.000000D+00  0.100000D+01
     80  0.000000D+00  0.000000D+00  0.000000D+00  0.333333D+00  0.100000D+01
     81  0.000000D+00  0.000000D+00  0.000000D+00  0.333333D+00  0.333333D+00
     82  0.000000D+00  0.000000D+00  0.000000D+00  0.000000D+00  0.000000D+00
     83  0.000000D+00  0.000000D+00  0.000000D+00  0.000000D+00  0.000000D+00
     84  0.000000D+00  0.000000D+00  0.000000D+00  0.000000D+00  0.000000D+00
     85  0.225200D+00  0.109910D+00  0.000000D+00  0.137730D-01  0.451326D-02
     86  0.505665D+00  0.246792D+00  0.000000D+00  0.120267D+00  0.822582D-01
     87  0.225200D+00 -0.109910D+00  0.000000D+00  0.137730D-01  0.451326D-02
     88  0.505665D+00 -0.246792D+00  0.000000D+00  0.120267D+00  0.822582D-01
     89 -0.109596D+00  0.179778D+00  0.000000D+00  0.207129D+00  0.361177D+00
     90 -0.226998D+00  0.372362D+00  0.000000D+00  0.371459D+00  0.408549D+00
     91 -0.109596D+00 -0.179778D+00  0.000000D+00  0.207129D+00  0.361177D+00
     92 -0.226998D+00 -0.372362D+00  0.000000D+00  0.371459D+00  0.408549D+00
               81            82            83            84            85 
     81  0.100000D+01
     82  0.000000D+00  0.100000D+01
     83  0.000000D+00  0.000000D+00  0.100000D+01
     84  0.000000D+00  0.000000D+00  0.000000D+00  0.100000D+01
     85  0.161797D-02  0.102751D-01  0.000000D+00  0.000000D+00  0.100000D+01
     86  0.703737D-01  0.421768D-01  0.000000D+00  0.000000D+00  0.658292D+00
     87  0.161797D-02 -0.102751D-01  0.000000D+00  0.000000D+00  0.125798D-01
     88  0.703737D-01 -0.421768D-01  0.000000D+00  0.000000D+00  0.128011D+00
     89  0.116021D+00 -0.258857D+00  0.000000D+00  0.000000D+00  0.571644D-03
[...]
     77   0.000000D+00  0.000000D+00  0.212034D-01 -0.212034D-01  0.357728D-01
     78  -0.347757D-01 -0.461586D-01 -0.226821D-01 -0.226821D-01 -0.382676D-01
     79   0.234703D-02  0.000000D+00  0.193840D-05  0.193840D-05  0.241720D-02
     80   0.000000D+00  0.000000D+00  0.000000D+00  0.000000D+00  0.650427D-02
     81   0.129644D-02  0.228507D+00  0.000000D+00  0.000000D+00  0.744313D-02
     82   0.000000D+00  0.000000D+00  0.163860D-05 -0.163860D-05 -0.686778D-02
     83  -0.302132D-02  0.000000D+00 -0.175287D-05 -0.175287D-05  0.734675D-02
     84   0.000000D+00  0.000000D+00  0.000000D+00  0.000000D+00 -0.120514D-01
     85   0.272521D-02  0.130531D-05  0.422179D-01  0.142954D-04  0.000000D+00
     86   0.511284D-01  0.745198D-02  0.101969D+00  0.136197D-01  0.290793D-02
     87   0.272521D-02  0.130531D-05  0.142954D-04  0.422179D-01  0.000000D+00
     88   0.511284D-01  0.745198D-02  0.136197D-01  0.101969D+00  0.388406D-03
     89   0.130531D-05  0.272521D-02  0.000000D+00  0.000000D+00  0.422179D-01
     90   0.745198D-02  0.511284D-01  0.290793D-02  0.388406D-03  0.101969D+00
     91   0.130531D-05  0.272521D-02  0.000000D+00  0.000000D+00  0.142954D-04
     92   0.745198D-02  0.511284D-01  0.388406D-03  0.290793D-02  0.136197D-01
                 6             7             8             9            10 
      1   0.000000D+00  0.759011D-05  0.000000D+00  0.000000D+00  0.000000D+00
      2   0.756427D-04  0.737218D-01  0.219192D-02  0.719747D-02  0.719747D-02
      3  -0.262955D-03  0.000000D+00 -0.535268D-02  0.744471D-02  0.744471D-02
      4  -0.128336D-03  0.000000D+00  0.000000D+00  0.122121D-01 -0.122121D-01
      5   0.000000D+00  0.136474D+00  0.397821D-02  0.130638D-01  0.130638D-01
      6   0.121531D-01  0.102711D+00  0.345080D-01  0.498870D-01  0.498870D-01
      7  -0.361366D-01  0.000000D+00 -0.720788D-01  0.441338D-01  0.441338D-01
      8  -0.176366D-01  0.000000D+00  0.000000D+00  0.723959D-01 -0.723959D-01
      9   0.000000D+00  0.159449D+00  0.535703D-01  0.774449D-01  0.774449D-01
     10   0.335310D-01  0.583561D-01  0.439653D-01  0.483799D-01  0.483799D-01
     11  -0.508002D-01  0.000000D+00 -0.467906D-01  0.218077D-01  0.218077D-01
     12  -0.247933D-01  0.000000D+00  0.000000D+00  0.357728D-01 -0.357728D-01
     13   0.000000D+00  0.461586D-01  0.347757D-01  0.382676D-01  0.382676D-01
     14   0.337410D-04  0.000000D+00  0.234703D-02  0.241720D-02  0.241720D-02
     15   0.803701D-05  0.000000D+00  0.000000D+00  0.650427D-02  0.650427D-02
     16   0.000000D+00  0.228507D+00  0.129644D-02  0.744313D-02  0.744313D-02
     17   0.285225D-04  0.000000D+00  0.000000D+00  0.686778D-02 -0.686778D-02
     18   0.000000D+00  0.000000D+00 -0.302132D-02  0.734675D-02  0.734675D-02
     19   0.000000D+00  0.000000D+00  0.000000D+00  0.120514D-01 -0.120514D-01
     20   0.000000D+00  0.000000D+00  0.759011D-05  0.000000D+00  0.000000D+00
     21   0.502054D-01  0.219192D-02  0.737218D-01  0.108316D-04  0.108316D-04
     22  -0.523278D-01  0.535268D-02  0.000000D+00  0.376538D-04  0.376538D-04
     23  -0.858372D-01  0.000000D+00  0.000000D+00  0.183771D-04 -0.183771D-04
     24   0.000000D+00  0.397821D-02  0.136474D+00  0.196587D-04  0.196587D-04
     25   0.911268D-01  0.345080D-01  0.102711D+00  0.665320D-02  0.665320D-02
     26  -0.806176D-01  0.720788D-01  0.000000D+00  0.197828D-01  0.197828D-01
     27  -0.132243D+00  0.000000D+00  0.000000D+00  0.965510D-02 -0.965510D-02
     28   0.000000D+00  0.535703D-01  0.159449D+00  0.103285D-01  0.103285D-01
     29   0.565711D-01  0.439653D-01  0.583561D-01  0.286759D-01  0.286759D-01
     30  -0.254999D-01  0.467906D-01  0.000000D+00  0.434447D-01  0.434447D-01
     31  -0.418294D-01  0.000000D+00  0.000000D+00  0.212034D-01 -0.212034D-01
     32   0.000000D+00  0.347757D-01  0.461586D-01  0.226821D-01  0.226821D-01
     33   0.420754D-01  0.234703D-02  0.000000D+00  0.193840D-05  0.193840D-05
     34   0.113217D+00  0.000000D+00  0.000000D+00  0.000000D+00  0.000000D+00
     35   0.000000D+00  0.129644D-02  0.228507D+00  0.000000D+00  0.000000D+00
     36   0.119545D+00  0.000000D+00  0.000000D+00  0.163860D-05 -0.163860D-05
     37   0.000000D+00  0.302132D-02  0.000000D+00  0.175287D-05  0.175287D-05
     38   0.000000D+00  0.000000D+00  0.000000D+00  0.000000D+00  0.000000D+00
     39   0.000000D+00  0.272521D-02  0.130531D-05  0.422179D-01  0.142954D-04
     40   0.690893D-03  0.511284D-01  0.745198D-02  0.101969D+00  0.136197D-01
     41   0.000000D+00  0.272521D-02  0.130531D-05  0.142954D-04  0.422179D-01
     42   0.517260D-02  0.511284D-01  0.745198D-02  0.136197D-01  0.101969D+00
     43   0.140591D-03  0.130531D-05  0.272521D-02  0.000000D+00  0.000000D+00
     44   0.242266D-01  0.745198D-02  0.511284D-01  0.290793D-02  0.388406D-03
     45   0.994558D+00  0.130531D-05  0.272521D-02  0.000000D+00  0.000000D+00
     46   0.181381D+00  0.745198D-02  0.511284D-01  0.388406D-03  0.290793D-02
     47   0.000000D+00  0.758902D+01  0.000000D+00  0.000000D+00  0.000000D+00
     48   0.108316D-04 -0.673212D-01  0.153063D-01  0.502054D-01  0.502054D-01
     49  -0.376538D-04  0.000000D+00 -0.373935D-01  0.523278D-01  0.523278D-01
     50  -0.183771D-04  0.000000D+00  0.000000D+00  0.858372D-01 -0.858372D-01
     51  -0.196587D-04  0.000000D+00  0.000000D+00  0.000000D+00  0.000000D+00
     52   0.665320D-02  0.187618D+00  0.630344D-01  0.911268D-01  0.911268D-01
     53  -0.197828D-01  0.000000D+00 -0.131664D+00  0.806176D-01  0.806176D-01
     54  -0.965510D-02  0.000000D+00  0.000000D+00  0.132243D+00 -0.132243D+00
     55  -0.103285D-01  0.000000D+00  0.000000D+00  0.000000D+00  0.000000D+00
     56   0.286759D-01  0.682363D-01  0.514090D-01  0.565711D-01  0.565711D-01
     57  -0.434447D-01  0.000000D+00 -0.547127D-01  0.254999D-01  0.254999D-01
     58  -0.212034D-01  0.000000D+00  0.000000D+00  0.418294D-01 -0.418294D-01
     59  -0.226821D-01  0.000000D+00  0.000000D+00  0.000000D+00  0.000000D+00
     60   0.193840D-05  0.000000D+00  0.408539D-01  0.420754D-01  0.420754D-01
     61   0.000000D+00  0.000000D+00  0.000000D+00  0.113217D+00  0.113217D+00
     62   0.000000D+00  0.000000D+00  0.000000D+00  0.000000D+00  0.000000D+00
     63   0.163860D-05  0.000000D+00  0.000000D+00  0.119545D+00 -0.119545D+00
     64   0.175287D-05  0.000000D+00  0.000000D+00  0.000000D+00  0.000000D+00
     65   0.000000D+00  0.000000D+00  0.000000D+00  0.000000D+00  0.000000D+00
     66   0.000000D+00  0.000000D+00  0.758902D+01  0.000000D+00  0.000000D+00
     67   0.719747D-02  0.153063D-01 -0.673212D-01  0.756427D-04  0.756427D-04
     68  -0.744471D-02  0.373935D-01  0.000000D+00  0.262955D-03  0.262955D-03
     69  -0.122121D-01  0.000000D+00  0.000000D+00  0.128336D-03 -0.128336D-03
     70  -0.130638D-01  0.000000D+00  0.000000D+00  0.000000D+00  0.000000D+00
     71   0.498870D-01  0.630344D-01  0.187618D+00  0.121531D-01  0.121531D-01
     72  -0.441338D-01  0.131664D+00  0.000000D+00  0.361366D-01  0.361366D-01
     73  -0.723959D-01  0.000000D+00  0.000000D+00  0.176366D-01 -0.176366D-01
     74  -0.774449D-01  0.000000D+00  0.000000D+00  0.000000D+00  0.000000D+00
     75   0.483799D-01  0.514090D-01  0.682363D-01  0.335310D-01  0.335310D-01
     76  -0.218077D-01  0.547127D-01  0.000000D+00  0.508002D-01  0.508002D-01
     77  -0.357728D-01  0.000000D+00  0.000000D+00  0.247933D-01 -0.247933D-01
     78  -0.382676D-01  0.000000D+00  0.000000D+00  0.000000D+00  0.000000D+00
     79   0.241720D-02  0.408539D-01  0.000000D+00  0.337410D-04  0.337410D-04
     80   0.650427D-02  0.000000D+00  0.000000D+00  0.803701D-05  0.803701D-05
     81   0.744313D-02  0.000000D+00  0.000000D+00  0.000000D+00  0.000000D+00
     82   0.686778D-02  0.000000D+00  0.000000D+00  0.285225D-04 -0.285225D-04
     83   0.734675D-02  0.000000D+00  0.000000D+00  0.000000D+00  0.000000D+00
     84   0.120514D-01  0.000000D+00  0.000000D+00  0.000000D+00  0.000000D+00
     85   0.000000D+00  0.268036D-01  0.128373D-04  0.994558D+00  0.140591D-03
     86   0.388406D-03  0.909467D-01  0.132555D-01  0.181381D+00  0.242266D-01
     87   0.000000D+00  0.268036D-01  0.128373D-04  0.140591D-03  0.994558D+00
     88   0.290793D-02  0.909467D-01  0.132555D-01  0.242266D-01  0.181381D+00
     89   0.142954D-04  0.128373D-04  0.268036D-01  0.000000D+00  0.000000D+00
     90   0.136197D-01  0.132555D-01  0.909467D-01  0.517260D-02  0.690893D-03
     91   0.422179D-01  0.128373D-04  0.268036D-01  0.000000D+00  0.000000D+00
     92   0.101969D+00  0.132555D-01  0.909467D-01  0.690893D-03  0.517260D-02
                11            12 
      1   0.000000D+00  0.000000D+00
      2   0.108316D-04  0.108316D-04
      3  -0.376538D-04 -0.376538D-04
      4   0.183771D-04 -0.183771D-04
      5   0.196587D-04  0.196587D-04
      6   0.665320D-02  0.665320D-02
      7  -0.197828D-01 -0.197828D-01
      8   0.965510D-02 -0.965510D-02
      9   0.103285D-01  0.103285D-01
     10   0.286759D-01  0.286759D-01
     11  -0.434447D-01 -0.434447D-01
     12   0.212034D-01 -0.212034D-01
     13   0.226821D-01  0.226821D-01
     14   0.193840D-05  0.193840D-05
     15   0.000000D+00  0.000000D+00
     16   0.000000D+00  0.000000D+00
     17  -0.163860D-05  0.163860D-05
     18  -0.175287D-05 -0.175287D-05
     19   0.000000D+00  0.000000D+00
     20   0.000000D+00  0.000000D+00
     21   0.719747D-02  0.719747D-02
     22  -0.744471D-02 -0.744471D-02
     23   0.122121D-01 -0.122121D-01
     24   0.130638D-01  0.130638D-01
     25   0.498870D-01  0.498870D-01
     26  -0.441338D-01 -0.441338D-01
     27   0.723959D-01 -0.723959D-01
     28   0.774449D-01  0.774449D-01
     29   0.483799D-01  0.483799D-01
     30  -0.218077D-01 -0.218077D-01
     31   0.357728D-01 -0.357728D-01
     32   0.382676D-01  0.382676D-01
     33   0.241720D-02  0.241720D-02
     34   0.650427D-02  0.650427D-02
     35   0.744313D-02  0.744313D-02
     36  -0.686778D-02  0.686778D-02
     37  -0.734675D-02 -0.734675D-02
     38   0.120514D-01 -0.120514D-01
     39   0.000000D+00  0.000000D+00
     40   0.290793D-02  0.388406D-03
     41   0.000000D+00  0.000000D+00
     42   0.388406D-03  0.290793D-02
     43   0.422179D-01  0.142954D-04
     44   0.101969D+00  0.136197D-01
     45   0.142954D-04  0.422179D-01
     46   0.136197D-01  0.101969D+00
     47   0.000000D+00  0.000000D+00
     48   0.756427D-04  0.756427D-04
     49  -0.262955D-03 -0.262955D-03
     50   0.128336D-03 -0.128336D-03
     51   0.000000D+00  0.000000D+00
     52   0.121531D-01  0.121531D-01
     53  -0.361366D-01 -0.361366D-01
     54   0.176366D-01 -0.176366D-01
     55   0.000000D+00  0.000000D+00
     56   0.335310D-01  0.335310D-01
     57  -0.508002D-01 -0.508002D-01
     58   0.247933D-01 -0.247933D-01
     59   0.000000D+00  0.000000D+00
     60   0.337410D-04  0.337410D-04
     61   0.803701D-05  0.803701D-05
     62   0.000000D+00  0.000000D+00
     63  -0.285225D-04  0.285225D-04
     64   0.000000D+00  0.000000D+00
     65   0.000000D+00  0.000000D+00
     66   0.000000D+00  0.000000D+00
     67   0.502054D-01  0.502054D-01
     68  -0.523278D-01 -0.523278D-01
     69   0.858372D-01 -0.858372D-01
     70   0.000000D+00  0.000000D+00
     71   0.911268D-01  0.911268D-01
     72  -0.806176D-01 -0.806176D-01
     73   0.132243D+00 -0.132243D+00
     74   0.000000D+00  0.000000D+00
     75   0.565711D-01  0.565711D-01
     76  -0.254999D-01 -0.254999D-01
     77   0.418294D-01 -0.418294D-01
     78   0.000000D+00  0.000000D+00
     79   0.420754D-01  0.420754D-01
     80   0.113217D+00  0.113217D+00
     81   0.000000D+00  0.000000D+00
     82  -0.119545D+00  0.119545D+00
     83   0.000000D+00  0.000000D+00
     84   0.000000D+00  0.000000D+00
     85   0.000000D+00  0.000000D+00
     86   0.517260D-02  0.690893D-03
     87   0.000000D+00  0.000000D+00
     88   0.690893D-03  0.517260D-02
     89   0.994558D+00  0.140591D-03
     90   0.181381D+00  0.242266D-01
     91   0.140591D-03  0.994558D+00
     92   0.242266D-01  0.181381D+00
 Harris functional with IExCor=  402 diagonalized for initial guess.
 ExpMin= 4.38D-02 ExpMax= 3.05D+03 ExpMxC= 4.57D+02 IAcc=2 IRadAn=         0 AccDes= 0.00D+00
 HarFok:  IExCor=  402 AccDes= 0.00D+00 IRadAn=         0 IDoV= 1
 ScaDFX=  1.000000  1.000000  1.000000  1.000000
 FoFCou: FMM=F IPFlag=           0 FMFlag=      100000 FMFlg1=           0
         NFxFlg=           0 DoJE=T BraDBF=F KetDBF=T FulRan=T
         Omega=  0.000000  0.000000  1.000000  0.000000  0.000000 ICntrl=     500 IOpCl=  0
         NMat0=    1 NMatS0=    1 NMatT0=    0 NMatD0=    1 NMtDS0=    0 NMtDT0=    0
         I1Cent=           4 NGrid=           0.
 Symmetry not used in FoFCou.
 Requested convergence on RMS density matrix=1.00D-08 within 128 cycles.
 Requested convergence on MAX density matrix=1.00D-06.
 Requested convergence on             energy=1.00D-06.
 No special actions if energy rises.
 Keep R1 ints in memory in canonical form, NReq=10213971.
 SCF Done:  E(RB3LYP) =  -155.559058185     A.U. after   11 cycles
             Convg  =    0.2887D-08             -V/T =  1.9611

 **********************************************************************

            Population analysis using the SCF density.

 **********************************************************************

 Alpha  occ. eigenvalues --  -10.17979 -10.17895 -10.16589 -10.16515  -1.16095
 Alpha  occ. eigenvalues --   -0.93850  -0.75097  -0.71390  -0.63829  -0.58760
 Alpha  occ. eigenvalues --   -0.44386  -0.39306  -0.34923  -0.26722  -0.21515
 Alpha  occ. eigenvalues --   -0.15780
 Alpha virt. eigenvalues --   -0.06347  -0.03597   0.02072   0.02798   0.03169
 Alpha virt. eigenvalues --    0.04769   0.06036   0.06334   0.06795   0.07377
 Alpha virt. eigenvalues --    0.09457   0.11342   0.13498   0.13524   0.16697
 Alpha virt. eigenvalues --    0.18293   0.18717   0.19343   0.19465   0.20691
 Alpha virt. eigenvalues --    0.22185   0.30747   0.34249   0.37157   0.43722
 Alpha virt. eigenvalues --    0.46447   0.49248   0.50426   0.52707   0.52823
 Alpha virt. eigenvalues --    0.53817   0.58594   0.64892   0.70069   0.70701
 Alpha virt. eigenvalues --    0.71323   0.75031   0.88981   0.95174   0.96767
 Alpha virt. eigenvalues --    0.97560   1.01234   1.01869   1.06861   1.09021
 Alpha virt. eigenvalues --    1.18986   1.20206   1.34656   1.43113   1.46323
 Alpha virt. eigenvalues --    1.51894   1.75574   1.80646   1.80775   1.91793
 Alpha virt. eigenvalues --    1.97406   2.05266   2.14309   2.17712   2.17850
 Alpha virt. eigenvalues --    2.30735   2.39506   2.46083   2.60278   2.69597
 Alpha virt. eigenvalues --    2.80544   2.81241   2.89550   3.06600   3.23395
 Alpha virt. eigenvalues --    3.91577   4.03289   4.14361   4.56096   4.74935
 Alpha virt. eigenvalues --    5.17062
          Condensed to atoms (all electrons):
              1          2          3          4          5          6
     1  C    9.948923  -1.819320   0.988753   0.988753  -0.170909  -0.170909
     2  C   -1.819320   9.948923  -0.170909  -0.170909   0.988753   0.988753
     3  H    0.988753  -0.170909   0.810838  -0.048180  -0.015140   0.006628
     4  H    0.988753  -0.170909  -0.048180   0.810838   0.006628  -0.015140
     5  H   -0.170909   0.988753  -0.015140   0.006628   0.810838  -0.048180
     6  H   -0.170909   0.988753   0.006628  -0.015140  -0.048180   0.810838
     7  C   -4.301766   1.828724  -0.606194  -0.606194   0.105978   0.105978
     8  C    1.828724  -4.301766   0.105978   0.105978  -0.606194  -0.606194
     9  H   -0.606194   0.105978  -0.258667   0.042389   0.004091  -0.005495
    10  H   -0.606194   0.105978   0.042389  -0.258667  -0.005495   0.004091
    11  H    0.105978  -0.606194   0.004091  -0.005495  -0.258667   0.042389
    12  H    0.105978  -0.606194  -0.005495   0.004091   0.042389  -0.258667
              7          8          9         10         11         12
     1  C   -4.301766   1.828724  -0.606194  -0.606194   0.105978   0.105978
     2  C    1.828724  -4.301766   0.105978   0.105978  -0.606194  -0.606194
     3  H   -0.606194   0.105978  -0.258667   0.042389   0.004091  -0.005495
     4  H   -0.606194   0.105978   0.042389  -0.258667  -0.005495   0.004091
     5  H    0.105978  -0.606194   0.004091  -0.005495  -0.258667   0.042389
     6  H    0.105978  -0.606194  -0.005495   0.004091   0.042389  -0.258667
     7  C    9.948923  -1.819320   0.988753   0.988753  -0.170909  -0.170909
     8  C   -1.819320   9.948923  -0.170909  -0.170909   0.988753   0.988753
     9  H    0.988753  -0.170909   0.810838  -0.048180  -0.015140   0.006628
    10  H    0.988753  -0.170909  -0.048180   0.810838   0.006628  -0.015140
    11  H   -0.170909   0.988753  -0.015140   0.006628   0.810838  -0.048180
    12  H   -0.170909   0.988753   0.006628  -0.015140  -0.048180   0.810838
 Mulliken atomic charges:
              1
     1  C   -0.291818
     2  C   -0.291818
     3  H    0.145909
     4  H    0.145909
     5  H    0.145909
     6  H    0.145909
     7  C   -0.291818
     8  C   -0.291818
     9  H    0.145909
    10  H    0.145909
    11  H    0.145909
    12  H    0.145909
 Sum of Mulliken atomic charges =   0.00000
 Mulliken charges with hydrogens summed into heavy atoms:
              1
     1  C    0.000000
     2  C    0.000000
     7  C    0.000000
     8  C    0.000000
 Sum of Mulliken charges with hydrogens summed into heavy atoms =   0.00000
 Electronic spatial extent (au):  <R**2>=            229.0362
 Charge=              0.0000 electrons
 Dipole moment (field-independent basis, Debye):
    X=              0.0000    Y=              0.0000    Z=              0.0000  Tot=              0.0000
 Quadrupole moment (field-independent basis, Debye-Ang):
   XX=            -26.5228   YY=            -24.3609   ZZ=            -35.2410
   XY=              0.0000   XZ=              0.0000   YZ=              0.0000
 Traceless Quadrupole moment (field-independent basis, Debye-Ang):
   XX=              2.1855   YY=              4.3473   ZZ=             -6.5328
   XY=              0.0000   XZ=              0.0000   YZ=              0.0000
 Octapole moment (field-independent basis, Debye-Ang**2):
  XXX=              0.0000  YYY=              0.0000  ZZZ=            -52.8615  XYY=              0.0000
  XXY=              0.0000  XXZ=            -13.2614  XZZ=              0.0000  YZZ=              0.0000
  YYZ=            -12.1805  XYZ=              0.0000
 Hexadecapole moment (field-independent basis, Debye-Ang**3):
 XXXX=           -151.0630 YYYY=            -60.9625 ZZZZ=           -145.3357 XXXY=              0.0000
 XXXZ=              0.0000 YYYX=              0.0000 YYYZ=              0.0000 ZZZX=              0.0000
 ZZZY=              0.0000 XXYY=            -32.1045 XXZZ=            -60.7574 YYZZ=            -38.9913
 XXYZ=              0.0000 YYXZ=              0.0000 ZZXY=              0.0000
 N-N= 1.594012197952D+02 E-N=-6.822496289825D+02  KE= 1.618501975408D+02

 Test job not archived.
 1\1\GINC-N24\SP\RB3LYP\6-31+G(d)\C4H8\SIM_JOBR9774\16-Apr-2018\0\\# b3
 lyp/6-31+g(d) nosymm geom=connectivity iop(3/33=1) punch=mo scf=tight\
 \9_11_07\\0,1\C,0,0.672749,0.,0.\C,0,-0.672749,0.,0.\H,0,1.242623,0.93
 4806,0.\H,0,1.242623,-0.934806,0.\H,0,-1.242623,0.934806,0.\H,0,-1.242
 623,-0.934806,0.\C,0,0.672749,0.,1.\C,0,-0.672749,0.,1.\H,0,1.242623,0
 .934806,1.\H,0,1.242623,-0.934806,1.\H,0,-1.242623,0.934806,1.\H,0,-1.
 242623,-0.934806,1.\\Version=EM64L-G09RevA.01\HF=-155.5590582\RMSD=2.8
 87e-09\Dipole=0.,0.,0.\Quadrupole=1.6248452,3.2321219,-4.8569671,0.,0.
 ,0.\PG=D02H [SG"(C4),X(H8)]\\@



 WE LOSE BECAUSE WE WIN

 GAMBLERS,

 RECOLLECTING WHICH,

 TOSS THEIR DICE AGAIN....


                          EMILY DICKINSON  BOLTS OF MELODY NO. 533
 Job cpu time:  0 days  0 hours  0 minutes 28.7 seconds.
 File lengths (MBytes):  RWF=      9 Int=      0 D2E=      0 Chk=      1 Scr=      1
 Normal termination of Gaussian 09 at Mon Apr 16 09:32:21 2018.
