 Entering Gaussian System, Link 0=/home/apps/gaussian_6_9/g09/g09
 Initial command:
 /home/apps/gaussian_6_9/g09/l1.exe /scratch/Gau-30897.inp -scrdir=/scratch/
 Entering Link 1 = /home/apps/gaussian_6_9/g09/l1.exe PID=     30898.
  
 Copyright (c) 1988,1990,1992,1993,1995,1998,2003,2009, Gaussian, Inc.
                  All Rights Reserved.
  
 This is part of the Gaussian(R) 09 program.  It is based on
 the Gaussian(R) 03 system (copyright 2003, Gaussian, Inc.),
 the Gaussian(R) 98 system (copyright 1998, Gaussian, Inc.),
 the Gaussian(R) 94 system (copyright 1995, Gaussian, Inc.),
 the Gaussian 92(TM) system (copyright 1992, Gaussian, Inc.),
 the Gaussian 90(TM) system (copyright 1990, Gaussian, Inc.),
 the Gaussian 88(TM) system (copyright 1988, Gaussian, Inc.),
 the Gaussian 86(TM) system (copyright 1986, Carnegie Mellon
 University), and the Gaussian 82(TM) system (copyright 1983,
 Carnegie Mellon University). Gaussian is a federally registered
 trademark of Gaussian, Inc.
  
 This software contains proprietary and confidential information,
 including trade secrets, belonging to Gaussian, Inc.
  
 This software is provided under written license and may be
 used, copied, transmitted, or stored only in accord with that
 written license.
  
 The following legend is applicable only to US Government
 contracts under FAR:
  
                    RESTRICTED RIGHTS LEGEND
  
 Use, reproduction and disclosure by the US Government is
 subject to restrictions as set forth in subparagraphs (a)
 and (c) of the Commercial Computer Software - Restricted
 Rights clause in FAR 52.227-19.
  
 Gaussian, Inc.
 340 Quinnipiac St., Bldg. 40, Wallingford CT 06492
  
  
 ---------------------------------------------------------------
 Warning -- This program may not be used in any manner that
 competes with the business of Gaussian, Inc. or will provide
 assistance to any competitor of Gaussian, Inc.  The licensee
 of this program is prohibited from giving any competitor of
 Gaussian, Inc. access to this program.  By using this program,
 the user acknowledges that Gaussian, Inc. is engaged in the
 business of creating and licensing software in the field of
 computational chemistry and represents and warrants to the
 licensee that it is not a competitor of Gaussian, Inc. and that
 it will not use this program in any manner prohibited above.
 ---------------------------------------------------------------
  

 Cite this work as:
 Gaussian 09, Revision A.01,
 M. J. Frisch, G. W. Trucks, H. B. Schlegel, G. E. Scuseria, 
 M. A. Robb, J. R. Cheeseman, G. Scalmani, V. Barone, B. Mennucci, 
 G. A. Petersson, H. Nakatsuji, M. Caricato, X. Li, H. P. Hratchian, 
 A. F. Izmaylov, J. Bloino, G. Zheng, J. L. Sonnenberg, M. Hada, 
 M. Ehara, K. Toyota, R. Fukuda, J. Hasegawa, M. Ishida, T. Nakajima, 
 Y. Honda, O. Kitao, H. Nakai, T. Vreven, J. A. Montgomery, Jr., 
 J. E. Peralta, F. Ogliaro, M. Bearpark, J. J. Heyd, E. Brothers, 
 K. N. Kudin, V. N. Staroverov, R. Kobayashi, J. Normand, 
 K. Raghavachari, A. Rendell, J. C. Burant, S. S. Iyengar, J. Tomasi, 
 M. Cossi, N. Rega, J. M. Millam, M. Klene, J. E. Knox, J. B. Cross, 
 V. Bakken, C. Adamo, J. Jaramillo, R. Gomperts, R. E. Stratmann, 
 O. Yazyev, A. J. Austin, R. Cammi, C. Pomelli, J. W. Ochterski, 
 R. L. Martin, K. Morokuma, V. G. Zakrzewski, G. A. Voth, 
 P. Salvador, J. J. Dannenberg, S. Dapprich, A. D. Daniels, 
 O. Farkas, J. B. Foresman, J. V. Ortiz, J. Cioslowski, 
 and D. J. Fox, Gaussian, Inc., Wallingford CT, 2009.
 
 ******************************************
 Gaussian 09:  EM64L-G09RevA.01  8-May-2009
                22-Mar-2018 
 ******************************************
 %nprocshared=2
 Will use up to    2 processors via shared memory.
 %mem=1GB
 -------------------------------------------------------------
 #b3lyp/6-31+g* scf=tight nosymm punch=mo iop(3/33=1) pop=full
 -------------------------------------------------------------
 1/38=1/1;
 2/12=2,15=1,17=6,18=5,40=1/2;
 3/5=1,6=6,7=11,11=2,16=1,25=1,30=1,33=1,74=-5/1,2,3;
 4//1;
 5/5=2,32=2,38=5/2;
 6/7=3,28=1/1;
 99/5=1,9=1,10=32/99;
 -------
 9_11_07
 -------
 Symbolic Z-matrix:
 Charge =  0 Multiplicity = 1
 C                     0.67275   0.        5. 
 C                    -0.67275   0.        5. 
 H                     1.24262   0.7161    5.60088 
 H                     1.24262  -0.7161    4.39912 
 H                    -1.24262   0.7161    5.60088 
 H                    -1.24262  -0.7161    4.39912 
 
                          Input orientation:                          
 ---------------------------------------------------------------------
 Center     Atomic      Atomic             Coordinates (Angstroms)
 Number     Number       Type             X           Y           Z
 ---------------------------------------------------------------------
      1          6           0        0.672749    0.000000    5.000000
      2          6           0       -0.672749    0.000000    5.000000
      3          1           0        1.242623    0.716103    5.600882
      4          1           0        1.242623   -0.716103    4.399118
      5          1           0       -1.242623    0.716103    5.600882
      6          1           0       -1.242623   -0.716103    4.399118
 ---------------------------------------------------------------------
                    Distance matrix (angstroms):
                    1          2          3          4          5
     1  C    0.000000
     2  C    1.345498   0.000000
     3  H    1.094815   2.131317   0.000000
     4  H    1.094815   2.131317   1.869612   0.000000
     5  H    2.131317   1.094815   2.485246   3.109968   0.000000
     6  H    2.131317   1.094815   3.109968   2.485246   1.869612
                    6
     6  H    0.000000
 Symmetry turned off by external request.
 Stoichiometry    C2H4
 Framework group  D2H[C2"(C.C),SG(H4)]
 Deg. of freedom     3
 Full point group                 D2H     NOp   8
 Rotational constants (GHZ):    143.4593527     29.5768688     24.5213309
 Standard basis: 6-31+G(d) (6D, 7F)
                         Coordinates in L301:                         
 ---------------------------------------------------------------------
 Center     Atomic      Atomic             Coordinates (Angstroms)
 Number     Number       Type             X           Y           Z
 ---------------------------------------------------------------------
      1          6           0        0.672749    0.000000    5.000000
      2          6           0       -0.672749    0.000000    5.000000
      3          1           0        1.242623    0.716103    5.600882
      4          1           0        1.242623   -0.716103    4.399118
      5          1           0       -1.242623    0.716103    5.600882
      6          1           0       -1.242623   -0.716103    4.399118
 ---------------------------------------------------------------------
 FixB: optimizing general contractions.
 Ernie: Thresh=  0.10000D-02 Tol=  0.10000D-05 Strict=F.
 IA=     1 NL=   1 NS=   0.
 IA=     1 L=0 SC=0 ISt=    0 NBk=    0 NP=    0 IndPr=    0.
 IA=     1 NL=   3 NS=   2.
 IA=     1 L=1 SC=0 ISt=    0 NBk=    0 NP=    0 IndPr=    0.
 IA=     1 NL=   1 NS=   1.
 IA=     1 L=2 SC=2 ISt=    0 NBk=    0 NP=    0 IndPr=    0.
 IA=     2 NL=   1 NS=   0.
 IA=     2 L=0 SC=0 ISt=    0 NBk=    0 NP=    0 IndPr=    0.
 IA=     2 NL=   3 NS=   2.
 IA=     2 L=1 SC=0 ISt=    0 NBk=    0 NP=    0 IndPr=    0.
 IA=     2 NL=   1 NS=   1.
 IA=     2 L=2 SC=2 ISt=    0 NBk=    0 NP=    0 IndPr=    0.
 IA=     3 NL=   2 NS=   1.
 IA=     3 L=0 SC=0 ISt=    0 NBk=    0 NP=    0 IndPr=    0.
 IA=     4 NL=   2 NS=   1.
 IA=     4 L=0 SC=0 ISt=    0 NBk=    0 NP=    0 IndPr=    0.
 IA=     5 NL=   2 NS=   1.
 IA=     5 L=0 SC=0 ISt=    0 NBk=    0 NP=    0 IndPr=    0.
 IA=     6 NL=   2 NS=   1.
 IA=     6 L=0 SC=0 ISt=    0 NBk=    0 NP=    0 IndPr=    0.
 LdAtmC:  AtmChg=     6.000000     6.000000     1.000000     1.000000     1.000000
 LdAtmC:  AtmChg=     1.000000
 AtZEff=     -3.6000000     -3.6000000     -1.0000000     -1.0000000     -1.0000000
 AtZEff=     -1.0000000
 Integral buffers will be    131072 words long.
 Raffenetti 2 integral format.
 Two-electron integral symmetry is turned off.
    46 basis functions,    80 primitive gaussians,    46 cartesian basis functions
     8 alpha electrons        8 beta electrons
       nuclear repulsion energy        33.0501000589 Hartrees.
 NAtoms=    6 NActive=    6 NUniq=    6 SFac= 7.50D-01 NAtFMM=   80 NAOKFM=F Big=F
 NPDir=0 NMtPBC=     1 NCelOv=     1 NCel=       1 NClECP=     1 NCelD=      1
         NCelK=      1 NCelE2=     1 NClLst=     1 CellRange=     0.0.
 One-electron integrals computed using PRISM.
 Entering OneElI...
 Calculate overlap and kinetic energy integrals
    NBasis =  46  MinDer = 0  MaxDer = 0
 Requested accuracy = 0.1000D-12
 PrsmSu:  NPrtUS=   2 ThrOK=T IAlg=1
 PRISM was handed    67093240 working-precision words and   171 shell-pairs
 PRISM was handed    67093240 working-precision words and   171 shell-pairs
 IPart=  0 NShTot=          87 NBatch=          25 AvBLen=         3.5
 IPart=  1 NShTot=          84 NBatch=          24 AvBLen=         3.5
 *** Overlap *** 
                1             2             3             4             5 
      1  0.100000D+01
      2  0.219059D+00  0.100000D+01
      3  0.000000D+00  0.000000D+00  0.100000D+01
      4  0.000000D+00  0.000000D+00  0.000000D+00  0.100000D+01
      5  0.000000D+00  0.000000D+00  0.000000D+00  0.000000D+00  0.100000D+01
      6  0.184261D+00  0.812273D+00  0.000000D+00  0.000000D+00  0.000000D+00
      7  0.000000D+00  0.000000D+00  0.569754D+00  0.000000D+00  0.000000D+00
      8  0.000000D+00  0.000000D+00  0.000000D+00  0.569754D+00  0.000000D+00
      9  0.000000D+00  0.000000D+00  0.000000D+00  0.000000D+00  0.569754D+00
     10  0.697718D-01  0.402091D+00  0.000000D+00  0.000000D+00  0.000000D+00
     11  0.000000D+00  0.000000D+00  0.164679D+00  0.000000D+00  0.000000D+00
     12  0.000000D+00  0.000000D+00  0.000000D+00  0.164679D+00  0.000000D+00
     13  0.000000D+00  0.000000D+00  0.000000D+00  0.000000D+00  0.164679D+00
     14  0.791027D-01  0.710235D+00  0.000000D+00  0.000000D+00  0.000000D+00
     15  0.791027D-01  0.710235D+00  0.000000D+00  0.000000D+00  0.000000D+00
     16  0.791027D-01  0.710235D+00  0.000000D+00  0.000000D+00  0.000000D+00
     17  0.000000D+00  0.000000D+00  0.000000D+00  0.000000D+00  0.000000D+00
     18  0.000000D+00  0.000000D+00  0.000000D+00  0.000000D+00  0.000000D+00
     19  0.000000D+00  0.000000D+00  0.000000D+00  0.000000D+00  0.000000D+00
     20  0.481399D-05  0.194904D-01 -0.426713D-01  0.000000D+00  0.000000D+00
     21  0.194904D-01  0.203366D+00 -0.282219D+00  0.000000D+00  0.000000D+00
     22  0.426713D-01  0.282219D+00 -0.333594D+00  0.000000D+00  0.000000D+00
     23  0.000000D+00  0.000000D+00  0.000000D+00  0.115814D+00  0.000000D+00
     24  0.000000D+00  0.000000D+00  0.000000D+00  0.000000D+00  0.115814D+00
     25  0.643636D-01  0.359351D+00 -0.253511D+00  0.000000D+00  0.000000D+00
     26  0.129620D+00  0.562375D+00 -0.170740D+00  0.000000D+00  0.000000D+00
     27  0.000000D+00  0.000000D+00  0.000000D+00  0.242739D+00  0.000000D+00
     28  0.000000D+00  0.000000D+00  0.000000D+00  0.000000D+00  0.242739D+00
     29  0.527094D-01  0.309785D+00 -0.673317D-01  0.000000D+00  0.000000D+00
     30  0.555561D-01  0.303665D+00  0.598522D-01  0.000000D+00  0.000000D+00
     31  0.000000D+00  0.000000D+00  0.000000D+00  0.126532D+00  0.000000D+00
     32  0.000000D+00  0.000000D+00  0.000000D+00  0.000000D+00  0.126532D+00
     33  0.526767D-01  0.334402D+00 -0.413876D+00  0.000000D+00  0.000000D+00
     34  0.113280D-02  0.928256D-01 -0.142160D+00  0.000000D+00  0.000000D+00
     35  0.113280D-02  0.928256D-01 -0.142160D+00  0.000000D+00  0.000000D+00
     36  0.000000D+00  0.000000D+00  0.000000D+00  0.183392D+00  0.000000D+00
     37  0.000000D+00  0.000000D+00  0.000000D+00  0.000000D+00  0.183392D+00
     38  0.000000D+00  0.000000D+00  0.000000D+00  0.000000D+00  0.000000D+00
     39  0.320525D-01  0.270664D+00  0.190665D+00  0.239590D+00  0.201040D+00
     40  0.916644D-01  0.473962D+00  0.138279D+00  0.173762D+00  0.145804D+00
     41  0.320525D-01  0.270664D+00  0.190665D+00 -0.239590D+00 -0.201040D+00
     42  0.916644D-01  0.473962D+00  0.138279D+00 -0.173762D+00 -0.145804D+00
     43  0.430532D-04  0.789566D-02 -0.152645D-01  0.570697D-02  0.478872D-02
     44  0.142782D-01  0.109874D+00 -0.102096D+00  0.381710D-01  0.320293D-01
     45  0.430532D-04  0.789566D-02 -0.152645D-01 -0.570697D-02 -0.478872D-02
     46  0.142782D-01  0.109874D+00 -0.102096D+00 -0.381710D-01 -0.320293D-01
                6             7             8             9            10 
      6  0.100000D+01
      7  0.000000D+00  0.100000D+01
      8  0.000000D+00  0.000000D+00  0.100000D+01
      9  0.000000D+00  0.000000D+00  0.000000D+00  0.100000D+01
     10  0.727666D+00  0.000000D+00  0.000000D+00  0.000000D+00  0.100000D+01
     11  0.000000D+00  0.588690D+00  0.000000D+00  0.000000D+00  0.000000D+00
     12  0.000000D+00  0.000000D+00  0.588690D+00  0.000000D+00  0.000000D+00
     13  0.000000D+00  0.000000D+00  0.000000D+00  0.588690D+00  0.000000D+00
     14  0.629936D+00  0.000000D+00  0.000000D+00  0.000000D+00  0.323540D+00
     15  0.629936D+00  0.000000D+00  0.000000D+00  0.000000D+00  0.323540D+00
     16  0.629936D+00  0.000000D+00  0.000000D+00  0.000000D+00  0.323540D+00
     17  0.000000D+00  0.000000D+00  0.000000D+00  0.000000D+00  0.000000D+00
     18  0.000000D+00  0.000000D+00  0.000000D+00  0.000000D+00  0.000000D+00
     19  0.000000D+00  0.000000D+00  0.000000D+00  0.000000D+00  0.000000D+00
     20  0.643636D-01 -0.129620D+00  0.000000D+00  0.000000D+00  0.527094D-01
     21  0.359351D+00 -0.562375D+00  0.000000D+00  0.000000D+00  0.309785D+00
     22  0.253511D+00 -0.170740D+00  0.000000D+00  0.000000D+00  0.673317D-01
     23  0.000000D+00  0.000000D+00  0.242739D+00  0.000000D+00  0.000000D+00
     24  0.000000D+00  0.000000D+00  0.000000D+00  0.242739D+00  0.000000D+00
     25  0.579631D+00 -0.605354D+00  0.000000D+00  0.000000D+00  0.581168D+00
     26  0.605354D+00 -0.525884D-01  0.000000D+00  0.000000D+00  0.250193D+00
     27  0.000000D+00  0.000000D+00  0.579631D+00  0.000000D+00  0.000000D+00
     28  0.000000D+00  0.000000D+00  0.000000D+00  0.579631D+00  0.000000D+00
     29  0.581168D+00 -0.250193D+00  0.000000D+00  0.000000D+00  0.867984D+00
     30  0.491037D+00  0.258780D+00  0.000000D+00  0.000000D+00  0.461882D+00
     31  0.000000D+00  0.000000D+00  0.470171D+00  0.000000D+00  0.000000D+00
     32  0.000000D+00  0.000000D+00  0.000000D+00  0.470171D+00  0.000000D+00
     33  0.353148D+00 -0.422973D+00  0.000000D+00  0.000000D+00  0.254635D+00
     34  0.255918D+00 -0.441451D+00  0.000000D+00  0.000000D+00  0.247363D+00
     35  0.255918D+00 -0.441451D+00  0.000000D+00  0.000000D+00  0.247363D+00
     36  0.000000D+00  0.000000D+00  0.161252D+00  0.000000D+00  0.000000D+00
     37  0.000000D+00  0.000000D+00  0.000000D+00  0.161252D+00  0.000000D+00
     38  0.000000D+00  0.000000D+00  0.000000D+00  0.000000D+00  0.000000D+00
     39  0.375116D+00  0.267879D+00  0.336616D+00  0.282455D+00  0.258482D+00
     40  0.702351D+00  0.303675D+00  0.381598D+00  0.320198D+00  0.640357D+00
     41  0.375116D+00  0.267879D+00 -0.336616D+00 -0.282455D+00  0.258482D+00
     42  0.702351D+00  0.303675D+00 -0.381598D+00 -0.320198D+00  0.640357D+00
     43  0.740737D-01 -0.176933D+00  0.661504D-01  0.555068D-01  0.158045D+00
     44  0.262382D+00 -0.381297D+00  0.142556D+00  0.119619D+00  0.424412D+00
     45  0.740737D-01 -0.176933D+00 -0.661504D-01 -0.555068D-01  0.158045D+00
     46  0.262382D+00 -0.381297D+00 -0.142556D+00 -0.119619D+00  0.424412D+00
               11            12            13            14            15 
     11  0.100000D+01
     12  0.000000D+00  0.100000D+01
     13  0.000000D+00  0.000000D+00  0.100000D+01
     14  0.000000D+00  0.000000D+00  0.000000D+00  0.100000D+01
     15  0.000000D+00  0.000000D+00  0.000000D+00  0.333333D+00  0.100000D+01
     16  0.000000D+00  0.000000D+00  0.000000D+00  0.333333D+00  0.333333D+00
     17  0.000000D+00  0.000000D+00  0.000000D+00  0.000000D+00  0.000000D+00
     18  0.000000D+00  0.000000D+00  0.000000D+00  0.000000D+00  0.000000D+00
     19  0.000000D+00  0.000000D+00  0.000000D+00  0.000000D+00  0.000000D+00
     20 -0.555561D-01  0.000000D+00  0.000000D+00  0.526767D-01  0.113280D-02
     21 -0.303665D+00  0.000000D+00  0.000000D+00  0.334402D+00  0.928256D-01
     22  0.598522D-01  0.000000D+00  0.000000D+00  0.413876D+00  0.142160D+00
     23  0.000000D+00  0.126532D+00  0.000000D+00  0.000000D+00  0.000000D+00
     24  0.000000D+00  0.000000D+00  0.126532D+00  0.000000D+00  0.000000D+00
     25 -0.491037D+00  0.000000D+00  0.000000D+00  0.353148D+00  0.255918D+00
     26  0.258780D+00  0.000000D+00  0.000000D+00  0.422973D+00  0.441451D+00
     27  0.000000D+00  0.470171D+00  0.000000D+00  0.000000D+00  0.000000D+00
     28  0.000000D+00  0.000000D+00  0.470171D+00  0.000000D+00  0.000000D+00
     29 -0.461882D+00  0.000000D+00  0.000000D+00  0.254635D+00  0.247363D+00
     30  0.622202D+00  0.000000D+00  0.000000D+00  0.229601D+00  0.249594D+00
     31  0.000000D+00  0.867984D+00  0.000000D+00  0.000000D+00  0.000000D+00
     32  0.000000D+00  0.000000D+00  0.867984D+00  0.000000D+00  0.000000D+00
     33 -0.229601D+00  0.000000D+00  0.000000D+00  0.487216D+00  0.154963D+00
     34 -0.249594D+00  0.000000D+00  0.000000D+00  0.154963D+00  0.753228D-01
     35 -0.249594D+00  0.000000D+00  0.000000D+00  0.154963D+00  0.251076D-01
     36  0.000000D+00  0.236690D-01  0.000000D+00  0.000000D+00  0.000000D+00
     37  0.000000D+00  0.000000D+00  0.236690D-01  0.000000D+00  0.000000D+00
     38  0.000000D+00  0.000000D+00  0.000000D+00  0.000000D+00  0.000000D+00
     39  0.109596D+00  0.137718D+00  0.115559D+00  0.207129D+00  0.259885D+00
     40  0.226998D+00  0.285246D+00  0.239350D+00  0.371459D+00  0.384161D+00
     41  0.109596D+00 -0.137718D+00 -0.115559D+00  0.207129D+00  0.259885D+00
     42  0.226998D+00 -0.285246D+00 -0.239350D+00  0.371459D+00  0.384161D+00
     43 -0.225200D+00  0.841958D-01  0.706487D-01  0.137730D-01  0.331699D-02
     44 -0.505665D+00  0.189054D+00  0.158635D+00  0.120267D+00  0.773478D-01
     45 -0.225200D+00 -0.841958D-01 -0.706487D-01  0.137730D-01  0.331699D-02
     46 -0.505665D+00 -0.189054D+00 -0.158635D+00  0.120267D+00  0.773478D-01
               16            17            18            19            20 
     16  0.100000D+01
     17  0.000000D+00  0.100000D+01
     18  0.000000D+00  0.000000D+00  0.100000D+01
     19  0.000000D+00  0.000000D+00  0.000000D+00  0.100000D+01
     20  0.113280D-02  0.000000D+00  0.000000D+00  0.000000D+00  0.100000D+01
     21  0.928256D-01  0.000000D+00  0.000000D+00  0.000000D+00  0.219059D+00
     22  0.142160D+00  0.000000D+00  0.000000D+00  0.000000D+00  0.000000D+00
     23  0.000000D+00 -0.183392D+00  0.000000D+00  0.000000D+00  0.000000D+00
     24  0.000000D+00  0.000000D+00 -0.183392D+00  0.000000D+00  0.000000D+00
     25  0.255918D+00  0.000000D+00  0.000000D+00  0.000000D+00  0.184261D+00
     26  0.441451D+00  0.000000D+00  0.000000D+00  0.000000D+00  0.000000D+00
     27  0.000000D+00 -0.161252D+00  0.000000D+00  0.000000D+00  0.000000D+00
     28  0.000000D+00  0.000000D+00 -0.161252D+00  0.000000D+00  0.000000D+00
     29  0.247363D+00  0.000000D+00  0.000000D+00  0.000000D+00  0.697718D-01
     30  0.249594D+00  0.000000D+00  0.000000D+00  0.000000D+00  0.000000D+00
     31  0.000000D+00 -0.236690D-01  0.000000D+00  0.000000D+00  0.000000D+00
     32  0.000000D+00  0.000000D+00 -0.236690D-01  0.000000D+00  0.000000D+00
     33  0.154963D+00  0.000000D+00  0.000000D+00  0.000000D+00  0.791027D-01
     34  0.251076D-01  0.000000D+00  0.000000D+00  0.000000D+00  0.791027D-01
     35  0.753228D-01  0.000000D+00  0.000000D+00  0.000000D+00  0.791027D-01
     36  0.000000D+00 -0.314243D+00  0.000000D+00  0.000000D+00  0.000000D+00
     37  0.000000D+00  0.000000D+00 -0.314243D+00  0.000000D+00  0.000000D+00
     38  0.000000D+00  0.000000D+00  0.000000D+00  0.753228D-01  0.000000D+00
     39  0.217314D+00  0.198296D+00  0.166390D+00  0.209086D+00  0.430532D-04
     40  0.373911D+00  0.477440D-01  0.400620D-01  0.503418D-01  0.142782D-01
     41  0.217314D+00 -0.198296D+00 -0.166390D+00  0.209086D+00  0.430532D-04
     42  0.373911D+00 -0.477440D-01 -0.400620D-01  0.503418D-01  0.142782D-01
     43  0.281423D-02 -0.787115D-02 -0.660468D-02  0.246930D-02  0.320525D-01
     44  0.752841D-01 -0.323093D-01 -0.271107D-01  0.101359D-01  0.916644D-01
     45  0.281423D-02  0.787115D-02  0.660468D-02  0.246930D-02  0.320525D-01
     46  0.752841D-01  0.323093D-01  0.271107D-01  0.101359D-01  0.916644D-01
               21            22            23            24            25 
     21  0.100000D+01
     22  0.000000D+00  0.100000D+01
     23  0.000000D+00  0.000000D+00  0.100000D+01
     24  0.000000D+00  0.000000D+00  0.000000D+00  0.100000D+01
     25  0.812273D+00  0.000000D+00  0.000000D+00  0.000000D+00  0.100000D+01
     26  0.000000D+00  0.569754D+00  0.000000D+00  0.000000D+00  0.000000D+00
     27  0.000000D+00  0.000000D+00  0.569754D+00  0.000000D+00  0.000000D+00
     28  0.000000D+00  0.000000D+00  0.000000D+00  0.569754D+00  0.000000D+00
     29  0.402091D+00  0.000000D+00  0.000000D+00  0.000000D+00  0.727666D+00
     30  0.000000D+00  0.164679D+00  0.000000D+00  0.000000D+00  0.000000D+00
     31  0.000000D+00  0.000000D+00  0.164679D+00  0.000000D+00  0.000000D+00
     32  0.000000D+00  0.000000D+00  0.000000D+00  0.164679D+00  0.000000D+00
     33  0.710235D+00  0.000000D+00  0.000000D+00  0.000000D+00  0.629936D+00
     34  0.710235D+00  0.000000D+00  0.000000D+00  0.000000D+00  0.629936D+00
     35  0.710235D+00  0.000000D+00  0.000000D+00  0.000000D+00  0.629936D+00
     36  0.000000D+00  0.000000D+00  0.000000D+00  0.000000D+00  0.000000D+00
     37  0.000000D+00  0.000000D+00  0.000000D+00  0.000000D+00  0.000000D+00
     38  0.000000D+00  0.000000D+00  0.000000D+00  0.000000D+00  0.000000D+00
     39  0.789566D-02  0.152645D-01  0.570697D-02  0.478872D-02  0.740737D-01
     40  0.109874D+00  0.102096D+00  0.381710D-01  0.320293D-01  0.262382D+00
     41  0.789566D-02  0.152645D-01 -0.570697D-02 -0.478872D-02  0.740737D-01
     42  0.109874D+00  0.102096D+00 -0.381710D-01 -0.320293D-01  0.262382D+00
     43  0.270664D+00 -0.190665D+00  0.239590D+00  0.201040D+00  0.375116D+00
     44  0.473962D+00 -0.138279D+00  0.173762D+00  0.145804D+00  0.702351D+00
     45  0.270664D+00 -0.190665D+00 -0.239590D+00 -0.201040D+00  0.375116D+00
     46  0.473962D+00 -0.138279D+00 -0.173762D+00 -0.145804D+00  0.702351D+00
               26            27            28            29            30 
     26  0.100000D+01
     27  0.000000D+00  0.100000D+01
     28  0.000000D+00  0.000000D+00  0.100000D+01
     29  0.000000D+00  0.000000D+00  0.000000D+00  0.100000D+01
     30  0.588690D+00  0.000000D+00  0.000000D+00  0.000000D+00  0.100000D+01
     31  0.000000D+00  0.588690D+00  0.000000D+00  0.000000D+00  0.000000D+00
     32  0.000000D+00  0.000000D+00  0.588690D+00  0.000000D+00  0.000000D+00
     33  0.000000D+00  0.000000D+00  0.000000D+00  0.323540D+00  0.000000D+00
     34  0.000000D+00  0.000000D+00  0.000000D+00  0.323540D+00  0.000000D+00
     35  0.000000D+00  0.000000D+00  0.000000D+00  0.323540D+00  0.000000D+00
     36  0.000000D+00  0.000000D+00  0.000000D+00  0.000000D+00  0.000000D+00
     37  0.000000D+00  0.000000D+00  0.000000D+00  0.000000D+00  0.000000D+00
     38  0.000000D+00  0.000000D+00  0.000000D+00  0.000000D+00  0.000000D+00
     39  0.176933D+00  0.661504D-01  0.555068D-01  0.158045D+00  0.225200D+00
     40  0.381297D+00  0.142556D+00  0.119619D+00  0.424412D+00  0.505665D+00
     41  0.176933D+00 -0.661504D-01 -0.555068D-01  0.158045D+00  0.225200D+00
     42  0.381297D+00 -0.142556D+00 -0.119619D+00  0.424412D+00  0.505665D+00
     43 -0.267879D+00  0.336616D+00  0.282455D+00  0.258482D+00 -0.109596D+00
     44 -0.303675D+00  0.381598D+00  0.320198D+00  0.640357D+00 -0.226998D+00
     45 -0.267879D+00 -0.336616D+00 -0.282455D+00  0.258482D+00 -0.109596D+00
     46 -0.303675D+00 -0.381598D+00 -0.320198D+00  0.640357D+00 -0.226998D+00
               31            32            33            34            35 
     31  0.100000D+01
     32  0.000000D+00  0.100000D+01
     33  0.000000D+00  0.000000D+00  0.100000D+01
     34  0.000000D+00  0.000000D+00  0.333333D+00  0.100000D+01
     35  0.000000D+00  0.000000D+00  0.333333D+00  0.333333D+00  0.100000D+01
     36  0.000000D+00  0.000000D+00  0.000000D+00  0.000000D+00  0.000000D+00
     37  0.000000D+00  0.000000D+00  0.000000D+00  0.000000D+00  0.000000D+00
     38  0.000000D+00  0.000000D+00  0.000000D+00  0.000000D+00  0.000000D+00
     39  0.841958D-01  0.706487D-01  0.137730D-01  0.331699D-02  0.281423D-02
     40  0.189054D+00  0.158635D+00  0.120267D+00  0.773478D-01  0.752841D-01
     41 -0.841958D-01 -0.706487D-01  0.137730D-01  0.331699D-02  0.281423D-02
     42 -0.189054D+00 -0.158635D+00  0.120267D+00  0.773478D-01  0.752841D-01
     43  0.137718D+00  0.115559D+00  0.207129D+00  0.259885D+00  0.217314D+00
     44  0.285246D+00  0.239350D+00  0.371459D+00  0.384161D+00  0.373911D+00
     45 -0.137718D+00 -0.115559D+00  0.207129D+00  0.259885D+00  0.217314D+00
     46 -0.285246D+00 -0.239350D+00  0.371459D+00  0.384161D+00  0.373911D+00
               36            37            38            39            40 
     36  0.100000D+01
     37  0.000000D+00  0.100000D+01
     38  0.000000D+00  0.000000D+00  0.100000D+01
     39  0.787115D-02  0.660468D-02  0.246930D-02  0.100000D+01
     40  0.323093D-01  0.271107D-01  0.101359D-01  0.658292D+00  0.100000D+01
     41 -0.787115D-02 -0.660468D-02  0.246930D-02  0.125798D-01  0.128011D+00
     42 -0.323093D-01 -0.271107D-01  0.101359D-01  0.128011D+00  0.365469D+00
     43 -0.198296D+00 -0.166390D+00  0.209086D+00  0.571644D-03  0.366357D-01
     44 -0.477440D-01 -0.400620D-01  0.503418D-01  0.366357D-01  0.168873D+00
     45  0.198296D+00  0.166390D+00  0.209086D+00  0.104764D-04  0.720594D-02
     46  0.477440D-01  0.400620D-01  0.503418D-01  0.720594D-02  0.617177D-01
               41            42            43            44            45 
     41  0.100000D+01
     42  0.658292D+00  0.100000D+01
     43  0.104764D-04  0.720594D-02  0.100000D+01
     44  0.720594D-02  0.617177D-01  0.658292D+00  0.100000D+01
     45  0.571644D-03  0.366357D-01  0.125798D-01  0.128011D+00  0.100000D+01
     46  0.366357D-01  0.168873D+00  0.128011D+00  0.365469D+00  0.658292D+00
               46 
     46  0.100000D+01
 *** Kinetic Energy *** 
                1             2             3             4             5 
      1  0.162076D+02
      2 -0.124757D+01  0.932246D+00
      3  0.000000D+00  0.000000D+00  0.217833D+01
      4  0.000000D+00  0.000000D+00  0.000000D+00  0.217833D+01
      5  0.000000D+00  0.000000D+00  0.000000D+00  0.000000D+00  0.217833D+01
      6  0.899505D-01  0.306718D+00  0.000000D+00  0.000000D+00  0.000000D+00
      7  0.000000D+00  0.000000D+00  0.376673D+00  0.000000D+00  0.000000D+00
      8  0.000000D+00  0.000000D+00  0.000000D+00  0.376673D+00  0.000000D+00
      9  0.000000D+00  0.000000D+00  0.000000D+00  0.000000D+00  0.376673D+00
     10  0.907972D-02  0.486595D-01  0.000000D+00  0.000000D+00  0.000000D+00
     11  0.000000D+00  0.000000D+00  0.335613D-01  0.000000D+00  0.000000D+00
     12  0.000000D+00  0.000000D+00  0.000000D+00  0.335613D-01  0.000000D+00
     13  0.000000D+00  0.000000D+00  0.000000D+00  0.000000D+00  0.335613D-01
     14 -0.524817D+00  0.520042D+00  0.000000D+00  0.000000D+00  0.000000D+00
     15 -0.524817D+00  0.520042D+00  0.000000D+00  0.000000D+00  0.000000D+00
     16 -0.524817D+00  0.520042D+00  0.000000D+00  0.000000D+00  0.000000D+00
     17  0.000000D+00  0.000000D+00  0.000000D+00  0.000000D+00  0.000000D+00
     18  0.000000D+00  0.000000D+00  0.000000D+00  0.000000D+00  0.000000D+00
     19  0.000000D+00  0.000000D+00  0.000000D+00  0.000000D+00  0.000000D+00
     20 -0.135413D-03 -0.305582D-01  0.301757D-01  0.000000D+00  0.000000D+00
     21 -0.305582D-01 -0.692999D-02 -0.114122D+00  0.000000D+00  0.000000D+00
     22 -0.301757D-01  0.114122D+00 -0.341734D+00  0.000000D+00  0.000000D+00
     23  0.000000D+00  0.000000D+00  0.000000D+00  0.325781D-01  0.000000D+00
     24  0.000000D+00  0.000000D+00  0.000000D+00  0.000000D+00  0.325781D-01
     25  0.938145D-02  0.623760D-01 -0.109871D+00  0.000000D+00  0.000000D+00
     26  0.610677D-01  0.239367D+00 -0.183669D+00  0.000000D+00  0.000000D+00
     27  0.000000D+00  0.000000D+00  0.000000D+00  0.105202D+00  0.000000D+00
     28  0.000000D+00  0.000000D+00  0.000000D+00  0.000000D+00  0.105202D+00
     29  0.557685D-02  0.309754D-01 -0.122746D-01  0.000000D+00  0.000000D+00
     30  0.106981D-01  0.548491D-01  0.547132D-02  0.000000D+00  0.000000D+00
     31  0.000000D+00  0.000000D+00  0.000000D+00  0.230668D-01  0.000000D+00
     32  0.000000D+00  0.000000D+00  0.000000D+00  0.000000D+00  0.230668D-01
     33 -0.759879D-01  0.185459D+00 -0.484409D+00  0.000000D+00  0.000000D+00
     34 -0.120047D-01 -0.702841D-01  0.455959D-01  0.000000D+00  0.000000D+00
     35 -0.120047D-01 -0.702841D-01  0.455959D-01  0.000000D+00  0.000000D+00
     36  0.000000D+00  0.000000D+00  0.000000D+00  0.142615D+00  0.000000D+00
     37  0.000000D+00  0.000000D+00  0.000000D+00  0.000000D+00  0.142615D+00
     38  0.000000D+00  0.000000D+00  0.000000D+00  0.000000D+00  0.000000D+00
     39 -0.348075D-01  0.397959D-01  0.121108D+00  0.152185D+00  0.127698D+00
     40  0.237890D-01  0.113380D+00  0.687448D-01  0.863847D-01  0.724854D-01
     41 -0.348075D-01  0.397959D-01  0.121108D+00 -0.152185D+00 -0.127698D+00
     42  0.237890D-01  0.113380D+00  0.687448D-01 -0.863847D-01 -0.724854D-01
     43 -0.349040D-03 -0.153574D-01  0.222209D-01 -0.830777D-02 -0.697105D-02
     44 -0.456069D-02 -0.130735D-01 -0.113744D-01  0.425256D-02  0.356832D-02
     45 -0.349040D-03 -0.153574D-01  0.222209D-01  0.830777D-02  0.697105D-02
     46 -0.456069D-02 -0.130735D-01 -0.113744D-01 -0.425256D-02 -0.356832D-02
                6             7             8             9            10 
      6  0.253072D+00
      7  0.000000D+00  0.421786D+00
      8  0.000000D+00  0.000000D+00  0.421786D+00
      9  0.000000D+00  0.000000D+00  0.000000D+00  0.421786D+00
     10  0.759086D-01  0.000000D+00  0.000000D+00  0.000000D+00  0.657000D-01
     11  0.000000D+00  0.102352D+00  0.000000D+00  0.000000D+00  0.000000D+00
     12  0.000000D+00  0.000000D+00  0.102352D+00  0.000000D+00  0.000000D+00
     13  0.000000D+00  0.000000D+00  0.000000D+00  0.102352D+00  0.000000D+00
     14  0.226288D+00  0.000000D+00  0.000000D+00  0.000000D+00  0.388353D-01
     15  0.226288D+00  0.000000D+00  0.000000D+00  0.000000D+00  0.388353D-01
     16  0.226288D+00  0.000000D+00  0.000000D+00  0.000000D+00  0.388353D-01
     17  0.000000D+00  0.000000D+00  0.000000D+00  0.000000D+00  0.000000D+00
     18  0.000000D+00  0.000000D+00  0.000000D+00  0.000000D+00  0.000000D+00
     19  0.000000D+00  0.000000D+00  0.000000D+00  0.000000D+00  0.000000D+00
     20  0.938145D-02 -0.610677D-01  0.000000D+00  0.000000D+00  0.557685D-02
     21  0.623760D-01 -0.239367D+00  0.000000D+00  0.000000D+00  0.309754D-01
     22  0.109871D+00 -0.183669D+00  0.000000D+00  0.000000D+00  0.122746D-01
     23  0.000000D+00  0.000000D+00  0.105202D+00  0.000000D+00  0.000000D+00
     24  0.000000D+00  0.000000D+00  0.000000D+00  0.105202D+00  0.000000D+00
     25  0.933559D-01 -0.199631D+00  0.000000D+00  0.000000D+00  0.515403D-01
     26  0.199631D+00 -0.124007D+00  0.000000D+00  0.000000D+00  0.395879D-01
     27  0.000000D+00  0.000000D+00  0.191148D+00  0.000000D+00  0.000000D+00
     28  0.000000D+00  0.000000D+00  0.000000D+00  0.191148D+00  0.000000D+00
     29  0.515403D-01 -0.395879D-01  0.000000D+00  0.000000D+00  0.516439D-01
     30  0.776965D-01  0.262452D-01  0.000000D+00  0.000000D+00  0.477118D-01
     31  0.000000D+00  0.000000D+00  0.743949D-01  0.000000D+00  0.000000D+00
     32  0.000000D+00  0.000000D+00  0.000000D+00  0.743949D-01  0.000000D+00
     33  0.981193D-01 -0.204141D+00  0.000000D+00  0.000000D+00  0.261278D-01
     34  0.276945D-01 -0.170788D+00  0.000000D+00  0.000000D+00  0.241761D-01
     35  0.276945D-01 -0.170788D+00  0.000000D+00  0.000000D+00  0.241761D-01
     36  0.000000D+00  0.000000D+00  0.116796D+00  0.000000D+00  0.000000D+00
     37  0.000000D+00  0.000000D+00  0.000000D+00  0.116796D+00  0.000000D+00
     38  0.000000D+00  0.000000D+00  0.000000D+00  0.000000D+00  0.000000D+00
     39  0.934992D-01  0.140040D+00  0.175974D+00  0.147659D+00  0.281911D-01
     40  0.132860D+00  0.107524D+00  0.135115D+00  0.113375D+00  0.596677D-01
     41  0.934992D-01  0.140040D+00 -0.175974D+00 -0.147659D+00  0.281911D-01
     42  0.132860D+00  0.107524D+00 -0.135115D+00 -0.113375D+00  0.596677D-01
     43 -0.141416D-01 -0.138972D-01  0.519578D-02  0.435978D-02  0.108285D-01
     44  0.702830D-02 -0.730942D-01  0.273278D-01  0.229308D-01  0.275201D-01
     45 -0.141416D-01 -0.138972D-01 -0.519578D-02 -0.435978D-02  0.108285D-01
     46  0.702830D-02 -0.730942D-01 -0.273278D-01 -0.229308D-01  0.275201D-01
               11            12            13            14            15 
     11  0.109500D+00
     12  0.000000D+00  0.109500D+00
     13  0.000000D+00  0.000000D+00  0.109500D+00
     14  0.000000D+00  0.000000D+00  0.000000D+00  0.173333D+01
     15  0.000000D+00  0.000000D+00  0.000000D+00 -0.133333D+00  0.173333D+01
     16  0.000000D+00  0.000000D+00  0.000000D+00 -0.133333D+00 -0.133333D+00
     17  0.000000D+00  0.000000D+00  0.000000D+00  0.000000D+00  0.000000D+00
     18  0.000000D+00  0.000000D+00  0.000000D+00  0.000000D+00  0.000000D+00
     19  0.000000D+00  0.000000D+00  0.000000D+00  0.000000D+00  0.000000D+00
     20 -0.106981D-01  0.000000D+00  0.000000D+00 -0.759879D-01 -0.120047D-01
     21 -0.548491D-01  0.000000D+00  0.000000D+00  0.185459D+00 -0.702841D-01
     22  0.547132D-02  0.000000D+00  0.000000D+00  0.484409D+00 -0.455959D-01
     23  0.000000D+00  0.230668D-01  0.000000D+00  0.000000D+00  0.000000D+00
     24  0.000000D+00  0.000000D+00  0.230668D-01  0.000000D+00  0.000000D+00
     25 -0.776965D-01  0.000000D+00  0.000000D+00  0.981193D-01  0.276945D-01
     26  0.262452D-01  0.000000D+00  0.000000D+00  0.204141D+00  0.170788D+00
     27  0.000000D+00  0.743949D-01  0.000000D+00  0.000000D+00  0.000000D+00
     28  0.000000D+00  0.000000D+00  0.743949D-01  0.000000D+00  0.000000D+00
     29 -0.477118D-01  0.000000D+00  0.000000D+00  0.261278D-01  0.241761D-01
     30  0.535074D-01  0.000000D+00  0.000000D+00  0.403672D-01  0.451237D-01
     31  0.000000D+00  0.896616D-01  0.000000D+00  0.000000D+00  0.000000D+00
     32  0.000000D+00  0.000000D+00  0.896616D-01  0.000000D+00  0.000000D+00
     33 -0.403672D-01  0.000000D+00  0.000000D+00  0.727180D+00 -0.709162D-01
     34 -0.451237D-01  0.000000D+00  0.000000D+00 -0.709162D-01 -0.252666D-01
     35 -0.451237D-01  0.000000D+00  0.000000D+00 -0.709162D-01 -0.619851D-01
     36  0.000000D+00  0.635248D-02  0.000000D+00  0.000000D+00  0.000000D+00
     37  0.000000D+00  0.000000D+00  0.635248D-02  0.000000D+00  0.000000D+00
     38  0.000000D+00  0.000000D+00  0.000000D+00  0.000000D+00  0.000000D+00
     39  0.209881D-01  0.263736D-01  0.221301D-01  0.366389D-01  0.107036D+00
     40  0.367895D-01  0.462297D-01  0.387913D-01  0.851469D-01  0.951220D-01
     41  0.209881D-01 -0.263736D-01 -0.221301D-01  0.366389D-01  0.107036D+00
     42  0.367895D-01 -0.462297D-01 -0.387913D-01  0.851469D-01  0.951220D-01
     43 -0.339886D-01  0.127074D-01  0.106627D-01 -0.261710D-01 -0.869335D-02
     44 -0.676243D-01  0.252828D-01  0.212148D-01  0.111356D-02 -0.141261D-01
     45 -0.339886D-01 -0.127074D-01 -0.106627D-01 -0.261710D-01 -0.869335D-02
     46 -0.676243D-01 -0.252828D-01 -0.212148D-01  0.111356D-02 -0.141261D-01
               16            17            18            19            20 
     16  0.173333D+01
     17  0.000000D+00  0.280000D+01
     18  0.000000D+00  0.000000D+00  0.280000D+01
     19  0.000000D+00  0.000000D+00  0.000000D+00  0.280000D+01
     20 -0.120047D-01  0.000000D+00  0.000000D+00  0.000000D+00  0.162076D+02
     21 -0.702841D-01  0.000000D+00  0.000000D+00  0.000000D+00 -0.124757D+01
     22 -0.455959D-01  0.000000D+00  0.000000D+00  0.000000D+00  0.000000D+00
     23  0.000000D+00 -0.142615D+00  0.000000D+00  0.000000D+00  0.000000D+00
     24  0.000000D+00  0.000000D+00 -0.142615D+00  0.000000D+00  0.000000D+00
     25  0.276945D-01  0.000000D+00  0.000000D+00  0.000000D+00  0.899505D-01
     26  0.170788D+00  0.000000D+00  0.000000D+00  0.000000D+00  0.000000D+00
     27  0.000000D+00 -0.116796D+00  0.000000D+00  0.000000D+00  0.000000D+00
     28  0.000000D+00  0.000000D+00 -0.116796D+00  0.000000D+00  0.000000D+00
     29  0.241761D-01  0.000000D+00  0.000000D+00  0.000000D+00  0.907972D-02
     30  0.451237D-01  0.000000D+00  0.000000D+00  0.000000D+00  0.000000D+00
     31  0.000000D+00 -0.635248D-02  0.000000D+00  0.000000D+00  0.000000D+00
     32  0.000000D+00  0.000000D+00 -0.635248D-02  0.000000D+00  0.000000D+00
     33 -0.709162D-01  0.000000D+00  0.000000D+00  0.000000D+00 -0.524817D+00
     34 -0.619851D-01  0.000000D+00  0.000000D+00  0.000000D+00 -0.524817D+00
     35 -0.252666D-01  0.000000D+00  0.000000D+00  0.000000D+00 -0.524817D+00
     36  0.000000D+00 -0.541434D+00  0.000000D+00  0.000000D+00  0.000000D+00
     37  0.000000D+00  0.000000D+00 -0.541434D+00  0.000000D+00  0.000000D+00
     38  0.000000D+00  0.000000D+00  0.000000D+00  0.550777D-01  0.000000D+00
     39  0.502292D-01  0.264608D+00  0.222033D+00  0.279006D+00 -0.349040D-03
     40  0.870726D-01  0.374941D-01  0.314613D-01  0.395343D-01 -0.456069D-02
     41  0.502292D-01 -0.264608D+00 -0.222033D+00  0.279006D+00 -0.349040D-03
     42  0.870726D-01 -0.374941D-01 -0.314613D-01  0.395343D-01 -0.456069D-02
     43 -0.785296D-02  0.131570D-01  0.110400D-01 -0.412756D-02 -0.348075D-01
     44 -0.148589D-01 -0.114723D-01 -0.962637D-02  0.359902D-02  0.237890D-01
     45 -0.785296D-02 -0.131570D-01 -0.110400D-01 -0.412756D-02 -0.348075D-01
     46 -0.148589D-01  0.114723D-01  0.962637D-02  0.359902D-02  0.237890D-01
               21            22            23            24            25 
     21  0.932246D+00
     22  0.000000D+00  0.217833D+01
     23  0.000000D+00  0.000000D+00  0.217833D+01
     24  0.000000D+00  0.000000D+00  0.000000D+00  0.217833D+01
     25  0.306718D+00  0.000000D+00  0.000000D+00  0.000000D+00  0.253072D+00
     26  0.000000D+00  0.376673D+00  0.000000D+00  0.000000D+00  0.000000D+00
     27  0.000000D+00  0.000000D+00  0.376673D+00  0.000000D+00  0.000000D+00
     28  0.000000D+00  0.000000D+00  0.000000D+00  0.376673D+00  0.000000D+00
     29  0.486595D-01  0.000000D+00  0.000000D+00  0.000000D+00  0.759086D-01
     30  0.000000D+00  0.335613D-01  0.000000D+00  0.000000D+00  0.000000D+00
     31  0.000000D+00  0.000000D+00  0.335613D-01  0.000000D+00  0.000000D+00
     32  0.000000D+00  0.000000D+00  0.000000D+00  0.335613D-01  0.000000D+00
     33  0.520042D+00  0.000000D+00  0.000000D+00  0.000000D+00  0.226288D+00
     34  0.520042D+00  0.000000D+00  0.000000D+00  0.000000D+00  0.226288D+00
     35  0.520042D+00  0.000000D+00  0.000000D+00  0.000000D+00  0.226288D+00
     36  0.000000D+00  0.000000D+00  0.000000D+00  0.000000D+00  0.000000D+00
     37  0.000000D+00  0.000000D+00  0.000000D+00  0.000000D+00  0.000000D+00
     38  0.000000D+00  0.000000D+00  0.000000D+00  0.000000D+00  0.000000D+00
     39 -0.153574D-01 -0.222209D-01 -0.830777D-02 -0.697105D-02 -0.141416D-01
     40 -0.130735D-01  0.113744D-01  0.425256D-02  0.356832D-02  0.702830D-02
     41 -0.153574D-01 -0.222209D-01  0.830777D-02  0.697105D-02 -0.141416D-01
     42 -0.130735D-01  0.113744D-01 -0.425256D-02 -0.356832D-02  0.702830D-02
     43  0.397959D-01 -0.121108D+00  0.152185D+00  0.127698D+00  0.934992D-01
     44  0.113380D+00 -0.687448D-01  0.863847D-01  0.724854D-01  0.132860D+00
     45  0.397959D-01 -0.121108D+00 -0.152185D+00 -0.127698D+00  0.934992D-01
     46  0.113380D+00 -0.687448D-01 -0.863847D-01 -0.724854D-01  0.132860D+00
               26            27            28            29            30 
     26  0.421786D+00
     27  0.000000D+00  0.421786D+00
     28  0.000000D+00  0.000000D+00  0.421786D+00
     29  0.000000D+00  0.000000D+00  0.000000D+00  0.657000D-01
     30  0.102352D+00  0.000000D+00  0.000000D+00  0.000000D+00  0.109500D+00
     31  0.000000D+00  0.102352D+00  0.000000D+00  0.000000D+00  0.000000D+00
     32  0.000000D+00  0.000000D+00  0.102352D+00  0.000000D+00  0.000000D+00
     33  0.000000D+00  0.000000D+00  0.000000D+00  0.388353D-01  0.000000D+00
     34  0.000000D+00  0.000000D+00  0.000000D+00  0.388353D-01  0.000000D+00
     35  0.000000D+00  0.000000D+00  0.000000D+00  0.388353D-01  0.000000D+00
     36  0.000000D+00  0.000000D+00  0.000000D+00  0.000000D+00  0.000000D+00
     37  0.000000D+00  0.000000D+00  0.000000D+00  0.000000D+00  0.000000D+00
     38  0.000000D+00  0.000000D+00  0.000000D+00  0.000000D+00  0.000000D+00
     39  0.138972D-01  0.519578D-02  0.435978D-02  0.108285D-01  0.339886D-01
     40  0.730942D-01  0.273278D-01  0.229308D-01  0.275201D-01  0.676243D-01
     41  0.138972D-01 -0.519578D-02 -0.435978D-02  0.108285D-01  0.339886D-01
     42  0.730942D-01 -0.273278D-01 -0.229308D-01  0.275201D-01  0.676243D-01
     43 -0.140040D+00  0.175974D+00  0.147659D+00  0.281911D-01 -0.209881D-01
     44 -0.107524D+00  0.135115D+00  0.113375D+00  0.596677D-01 -0.367895D-01
     45 -0.140040D+00 -0.175974D+00 -0.147659D+00  0.281911D-01 -0.209881D-01
     46 -0.107524D+00 -0.135115D+00 -0.113375D+00  0.596677D-01 -0.367895D-01
               31            32            33            34            35 
     31  0.109500D+00
     32  0.000000D+00  0.109500D+00
     33  0.000000D+00  0.000000D+00  0.173333D+01
     34  0.000000D+00  0.000000D+00 -0.133333D+00  0.173333D+01
     35  0.000000D+00  0.000000D+00 -0.133333D+00 -0.133333D+00  0.173333D+01
     36  0.000000D+00  0.000000D+00  0.000000D+00  0.000000D+00  0.000000D+00
     37  0.000000D+00  0.000000D+00  0.000000D+00  0.000000D+00  0.000000D+00
     38  0.000000D+00  0.000000D+00  0.000000D+00  0.000000D+00  0.000000D+00
     39  0.127074D-01  0.106627D-01 -0.261710D-01 -0.869335D-02 -0.785296D-02
     40  0.252828D-01  0.212148D-01  0.111356D-02 -0.141261D-01 -0.148589D-01
     41 -0.127074D-01 -0.106627D-01 -0.261710D-01 -0.869335D-02 -0.785296D-02
     42 -0.252828D-01 -0.212148D-01  0.111356D-02 -0.141261D-01 -0.148589D-01
     43  0.263736D-01  0.221301D-01  0.366389D-01  0.107036D+00  0.502292D-01
     44  0.462297D-01  0.387913D-01  0.851469D-01  0.951220D-01  0.870726D-01
     45 -0.263736D-01 -0.221301D-01  0.366389D-01  0.107036D+00  0.502292D-01
     46 -0.462297D-01 -0.387913D-01  0.851469D-01  0.951220D-01  0.870726D-01
               36            37            38            39            40 
     36  0.280000D+01
     37  0.000000D+00  0.280000D+01
     38  0.000000D+00  0.000000D+00  0.280000D+01
     39 -0.131570D-01 -0.110400D-01 -0.412756D-02  0.139568D+01
     40  0.114723D-01  0.962637D-02  0.359902D-02  0.259735D+00  0.241917D+00
     41  0.131570D-01  0.110400D-01 -0.412756D-02 -0.215317D-01 -0.462461D-02
     42 -0.114723D-01 -0.962637D-02  0.359902D-02 -0.462461D-02  0.290836D-01
     43 -0.264608D+00 -0.222033D+00  0.279006D+00 -0.205251D-02 -0.132355D-01
     44 -0.374941D-01 -0.314613D-01  0.395343D-01 -0.132355D-01 -0.758808D-02
     45  0.264608D+00  0.222033D+00  0.279006D+00 -0.641176D-04 -0.562451D-02
     46  0.374941D-01  0.314613D-01  0.395343D-01 -0.562451D-02 -0.127923D-01
               41            42            43            44            45 
     41  0.139568D+01
     42  0.259735D+00  0.241917D+00
     43 -0.641176D-04 -0.562451D-02  0.139568D+01
     44 -0.562451D-02 -0.127923D-01  0.259735D+00  0.241917D+00
     45 -0.205251D-02 -0.132355D-01 -0.215317D-01 -0.462461D-02  0.139568D+01
     46 -0.132355D-01 -0.758808D-02 -0.462461D-02  0.290836D-01  0.259735D+00
               46 
     46  0.241917D+00
 Entering OneElI...
 Calculate potential energy integrals
    NBasis =  46  MinDer = 0  MaxDer = 0
 Requested accuracy = 0.1000D-12
 PrsmSu:  NPrtUS=   2 ThrOK=T IAlg=1
 PRISM was handed    67094180 working-precision words and   171 shell-pairs
 PRISM was handed    67094180 working-precision words and   171 shell-pairs
 IPart=  0 NShTot=         522 NBatch=          87 AvBLen=         6.0
 IPart=  1 NShTot=         504 NBatch=          84 AvBLen=         6.0
 ***** Potential Energy ***** 
                1             2             3             4             5 
      1  0.379758D+02
      2  0.325034D+01  0.954109D+01
      3 -0.754548D-01 -0.547415D+00  0.103022D+02
      4  0.000000D+00  0.000000D+00  0.000000D+00  0.995437D+01
      5  0.000000D+00  0.000000D+00  0.000000D+00  0.776093D-01  0.992700D+01
      6  0.395732D+01  0.722449D+01 -0.552654D+00  0.000000D+00  0.000000D+00
      7 -0.126760D-01 -0.400277D+00  0.477705D+01  0.000000D+00  0.000000D+00
      8  0.000000D+00  0.000000D+00  0.000000D+00  0.442004D+01  0.669317D-01
      9  0.000000D+00  0.000000D+00  0.000000D+00  0.669317D-01  0.439643D+01
     10  0.147551D+01  0.340376D+01 -0.309548D+00  0.000000D+00  0.000000D+00
     11 -0.255468D-02 -0.119276D+00  0.131075D+01  0.000000D+00  0.000000D+00
     12  0.000000D+00  0.000000D+00  0.000000D+00  0.119275D+01  0.202014D-01
     13  0.000000D+00  0.000000D+00  0.000000D+00  0.202014D-01  0.118562D+01
     14  0.113282D+01  0.647992D+01 -0.898759D+00  0.000000D+00  0.000000D+00
     15  0.112385D+01  0.619046D+01 -0.191035D+00  0.000000D+00  0.000000D+00
     16  0.112309D+01  0.616706D+01 -0.201309D+00  0.000000D+00  0.000000D+00
     17  0.000000D+00  0.000000D+00  0.000000D+00 -0.330882D+00  0.504621D-01
     18  0.000000D+00  0.000000D+00  0.000000D+00  0.504621D-01 -0.348678D+00
     19  0.372017D-02  0.114916D+00  0.504621D-01  0.000000D+00  0.000000D+00
     20  0.522031D-04  0.386654D+00 -0.877428D+00  0.000000D+00  0.000000D+00
     21  0.386654D+00  0.199166D+01 -0.281338D+01  0.000000D+00  0.000000D+00
     22  0.877428D+00  0.281338D+01 -0.340456D+01  0.000000D+00  0.000000D+00
     23  0.000000D+00  0.000000D+00  0.000000D+00  0.101400D+01  0.421059D-02
     24  0.000000D+00  0.000000D+00  0.000000D+00  0.421059D-02  0.101252D+01
     25  0.136689D+01  0.330447D+01 -0.247836D+01  0.000000D+00  0.000000D+00
     26  0.278636D+01  0.511865D+01 -0.180210D+01  0.000000D+00  0.000000D+00
     27  0.000000D+00  0.000000D+00  0.000000D+00  0.190527D+01  0.179956D-01
     28  0.000000D+00  0.000000D+00  0.000000D+00  0.179956D-01  0.189892D+01
     29  0.111456D+01  0.266567D+01 -0.785103D+00  0.000000D+00  0.000000D+00
     30  0.117714D+01  0.254173D+01  0.270952D+00  0.000000D+00  0.000000D+00
     31  0.000000D+00  0.000000D+00  0.000000D+00  0.924894D+00  0.137484D-01
     32  0.000000D+00  0.000000D+00  0.000000D+00  0.137484D-01  0.920046D+00
     33  0.104713D+01  0.335754D+01 -0.421660D+01  0.000000D+00  0.000000D+00
     34  0.142310D-01  0.812865D+00 -0.126252D+01  0.000000D+00  0.000000D+00
     35  0.142245D-01  0.811774D+00 -0.126071D+01  0.000000D+00  0.000000D+00
     36  0.000000D+00  0.000000D+00  0.000000D+00  0.163550D+01  0.492478D-02
     37  0.000000D+00  0.000000D+00  0.000000D+00  0.492478D-02  0.163376D+01
     38  0.318993D-04  0.535922D-02 -0.889471D-02  0.000000D+00  0.000000D+00
     39  0.638255D+00  0.217119D+01  0.142181D+01  0.185511D+01  0.155662D+01
     40  0.194661D+01  0.400503D+01  0.800304D+00  0.131755D+01  0.110556D+01
     41  0.638255D+00  0.217119D+01  0.142181D+01 -0.185511D+01 -0.155662D+01
     42  0.194661D+01  0.400503D+01  0.800304D+00 -0.131755D+01 -0.110556D+01
     43  0.655154D-03  0.713885D-01 -0.140069D+00  0.443693D-01  0.372303D-01
     44  0.297634D+00  0.991750D+00 -0.963411D+00  0.294703D+00  0.247285D+00
     45  0.655154D-03  0.713885D-01 -0.140069D+00 -0.443693D-01 -0.372303D-01
     46  0.297634D+00  0.991750D+00 -0.963411D+00 -0.294703D+00 -0.247285D+00
                6             7             8             9            10 
      6  0.758242D+01
      7 -0.834042D+00  0.660462D+01
      8  0.000000D+00  0.000000D+00  0.574574D+01
      9  0.000000D+00  0.000000D+00  0.114158D+00  0.570548D+01
     10  0.475783D+01 -0.752131D+00  0.000000D+00  0.000000D+00  0.472988D+01
     11 -0.383225D+00  0.329621D+01  0.000000D+00  0.000000D+00 -0.585647D+00
     12  0.000000D+00  0.000000D+00  0.285051D+01  0.518959D-01  0.000000D+00
     13  0.000000D+00  0.000000D+00  0.518959D-01  0.283220D+01  0.000000D+00
     14  0.542661D+01 -0.781273D+00  0.000000D+00  0.000000D+00  0.270085D+01
     15  0.508958D+01 -0.140162D+00  0.000000D+00  0.000000D+00  0.250606D+01
     16  0.506462D+01 -0.149992D+00  0.000000D+00  0.000000D+00  0.249240D+01
     17  0.000000D+00  0.000000D+00 -0.242767D+00  0.482802D-01  0.000000D+00
     18  0.000000D+00  0.000000D+00  0.482802D-01 -0.259794D+00  0.000000D+00
     19  0.122587D+00  0.482802D-01  0.000000D+00  0.000000D+00  0.671357D-01
     20  0.136689D+01 -0.278636D+01  0.000000D+00  0.000000D+00  0.111456D+01
     21  0.330447D+01 -0.511865D+01  0.000000D+00  0.000000D+00  0.266567D+01
     22  0.247836D+01 -0.180210D+01  0.000000D+00  0.000000D+00  0.785103D+00
     23  0.000000D+00  0.000000D+00  0.190527D+01  0.179956D-01  0.000000D+00
     24  0.000000D+00  0.000000D+00  0.179956D-01  0.189892D+01  0.000000D+00
     25  0.462658D+01 -0.483190D+01  0.000000D+00  0.000000D+00  0.393010D+01
     26  0.483190D+01 -0.791981D+00  0.000000D+00  0.000000D+00  0.204894D+01
     27  0.000000D+00  0.000000D+00  0.345877D+01  0.489096D-01  0.000000D+00
     28  0.000000D+00  0.000000D+00  0.489096D-01  0.344153D+01  0.000000D+00
     29  0.393010D+01 -0.204894D+01  0.000000D+00  0.000000D+00  0.424426D+01
     30  0.313869D+01  0.105859D+01  0.000000D+00  0.000000D+00  0.225851D+01
     31  0.000000D+00  0.000000D+00  0.233013D+01  0.391128D-01  0.000000D+00
     32  0.000000D+00  0.000000D+00  0.391128D-01  0.231633D+01  0.000000D+00
     33  0.336089D+01 -0.384177D+01  0.000000D+00  0.000000D+00  0.221838D+01
     34  0.209782D+01 -0.361323D+01  0.000000D+00  0.000000D+00  0.193030D+01
     35  0.209128D+01 -0.359918D+01  0.000000D+00  0.000000D+00  0.192099D+01
     36  0.000000D+00  0.000000D+00  0.133127D+01 -0.190213D-02  0.000000D+00
     37  0.000000D+00  0.000000D+00 -0.190213D-02  0.133194D+01  0.000000D+00
     38  0.321260D-01 -0.690055D-01  0.000000D+00  0.000000D+00  0.457084D-01
     39  0.258654D+01  0.162733D+01  0.211278D+01  0.177284D+01  0.161802D+01
     40  0.472949D+01  0.126362D+01  0.205453D+01  0.172396D+01  0.346403D+01
     41  0.258654D+01  0.162733D+01 -0.211278D+01 -0.177284D+01  0.161802D+01
     42  0.472949D+01  0.126362D+01 -0.205453D+01 -0.172396D+01  0.346403D+01
     43  0.547347D+00 -0.128160D+01  0.432456D+00  0.362874D+00  0.101390D+01
     44  0.195008D+01 -0.276772D+01  0.819072D+00  0.687283D+00  0.243420D+01
     45  0.547347D+00 -0.128160D+01 -0.432456D+00 -0.362874D+00  0.101390D+01
     46  0.195008D+01 -0.276772D+01 -0.819072D+00 -0.687283D+00  0.243420D+01
               11            12            13            14            15 
     11  0.374321D+01
     12  0.000000D+00  0.334971D+01
     13  0.000000D+00  0.412912D-01  0.333514D+01
     14 -0.236087D+00  0.000000D+00  0.000000D+00  0.887461D+01
     15 -0.405443D-01  0.000000D+00  0.000000D+00  0.282281D+01  0.818466D+01
     16 -0.434294D-01  0.000000D+00  0.000000D+00  0.281129D+01  0.273286D+01
     17  0.000000D+00 -0.702247D-01  0.141701D-01  0.000000D+00  0.000000D+00
     18  0.000000D+00  0.141701D-01 -0.752219D-01  0.000000D+00  0.000000D+00
     19  0.141701D-01  0.000000D+00  0.000000D+00  0.565993D-01  0.129945D+00
     20 -0.117714D+01  0.000000D+00  0.000000D+00  0.104713D+01  0.142310D-01
     21 -0.254173D+01  0.000000D+00  0.000000D+00  0.335754D+01  0.812865D+00
     22  0.270952D+00  0.000000D+00  0.000000D+00  0.421660D+01  0.126252D+01
     23  0.000000D+00  0.924894D+00  0.137484D-01  0.000000D+00  0.000000D+00
     24  0.000000D+00  0.137484D-01  0.920046D+00  0.000000D+00  0.000000D+00
     25 -0.313869D+01  0.000000D+00  0.000000D+00  0.336089D+01  0.209782D+01
     26  0.105859D+01  0.000000D+00  0.000000D+00  0.384177D+01  0.361323D+01
     27  0.000000D+00  0.233013D+01  0.391128D-01  0.000000D+00  0.000000D+00
     28  0.000000D+00  0.391128D-01  0.231633D+01  0.000000D+00  0.000000D+00
     29 -0.225851D+01  0.000000D+00  0.000000D+00  0.221838D+01  0.193030D+01
     30  0.203658D+01  0.000000D+00  0.000000D+00  0.183978D+01  0.192491D+01
     31  0.000000D+00  0.297191D+01  0.368649D-01  0.000000D+00  0.000000D+00
     32  0.000000D+00  0.368649D-01  0.295891D+01  0.000000D+00  0.000000D+00
     33 -0.183978D+01  0.000000D+00  0.000000D+00  0.488618D+01  0.141368D+01
     34 -0.192491D+01  0.000000D+00  0.000000D+00  0.141368D+01  0.611423D+00
     35 -0.191343D+01  0.000000D+00  0.000000D+00  0.141209D+01  0.203695D+00
     36  0.000000D+00  0.224188D+00 -0.771132D-02  0.000000D+00  0.000000D+00
     37  0.000000D+00 -0.771132D-02  0.226907D+00  0.000000D+00  0.000000D+00
     38 -0.563571D-01  0.000000D+00  0.000000D+00  0.777619D-02  0.311731D-02
     39  0.606426D+00  0.786038D+00  0.659564D+00  0.155326D+01  0.198548D+01
     40  0.790796D+00  0.122517D+01  0.102804D+01  0.296063D+01  0.299470D+01
     41  0.606426D+00 -0.786038D+00 -0.659564D+00  0.155326D+01  0.198548D+01
     42  0.790796D+00 -0.122517D+01 -0.102804D+01  0.296063D+01  0.299470D+01
     43 -0.140106D+01  0.489215D+00  0.410500D+00  0.135129D+00  0.259484D-01
     44 -0.267289D+01  0.845628D+00  0.709566D+00  0.114867D+01  0.619609D+00
     45 -0.140106D+01 -0.489215D+00 -0.410500D+00  0.135129D+00  0.259484D-01
     46 -0.267289D+01 -0.845628D+00 -0.709566D+00  0.114867D+01  0.619609D+00
               16            17            18            19            20 
     16  0.813425D+01
     17  0.000000D+00  0.846843D+01
     18  0.000000D+00  0.980328D-01  0.843386D+01
     19  0.117609D+00  0.000000D+00  0.000000D+00  0.819859D+01
     20  0.142245D-01  0.000000D+00  0.000000D+00  0.318993D-04  0.379758D+02
     21  0.811774D+00  0.000000D+00  0.000000D+00  0.535922D-02  0.325034D+01
     22  0.126071D+01  0.000000D+00  0.000000D+00  0.889471D-02  0.754548D-01
     23  0.000000D+00 -0.163550D+01 -0.492478D-02  0.000000D+00  0.000000D+00
     24  0.000000D+00 -0.492478D-02 -0.163376D+01  0.000000D+00  0.000000D+00
     25  0.209128D+01  0.000000D+00  0.000000D+00  0.321260D-01  0.395732D+01
     26  0.359918D+01  0.000000D+00  0.000000D+00  0.690055D-01  0.126760D-01
     27  0.000000D+00 -0.133127D+01  0.190213D-02  0.000000D+00  0.000000D+00
     28  0.000000D+00  0.190213D-02 -0.133194D+01  0.000000D+00  0.000000D+00
     29  0.192099D+01  0.000000D+00  0.000000D+00  0.457084D-01  0.147551D+01
     30  0.191343D+01  0.000000D+00  0.000000D+00  0.563571D-01  0.255468D-02
     31  0.000000D+00 -0.224188D+00  0.771132D-02  0.000000D+00  0.000000D+00
     32  0.000000D+00  0.771132D-02 -0.226907D+00  0.000000D+00  0.000000D+00
     33  0.141209D+01  0.000000D+00  0.000000D+00  0.777619D-02  0.113282D+01
     34  0.203695D+00  0.000000D+00  0.000000D+00  0.311731D-02  0.112385D+01
     35  0.610172D+00  0.000000D+00  0.000000D+00  0.302649D-02  0.112309D+01
     36  0.000000D+00 -0.279608D+01 -0.702217D-02  0.000000D+00  0.000000D+00
     37  0.000000D+00 -0.702217D-02 -0.279361D+01  0.000000D+00  0.000000D+00
     38  0.302649D-02  0.000000D+00  0.000000D+00  0.611086D+00  0.372017D-02
     39  0.166147D+01  0.145177D+01  0.121818D+01  0.159139D+01  0.655154D-03
     40  0.290569D+01  0.292248D+00  0.245225D+00  0.437169D+00  0.297634D+00
     41  0.166147D+01 -0.145177D+01 -0.121818D+01  0.159139D+01  0.655154D-03
     42  0.290569D+01 -0.292248D+00 -0.245225D+00  0.437169D+00  0.297634D+00
     43  0.221716D-01 -0.650579D-01 -0.545901D-01  0.185498D-01  0.638255D+00
     44  0.603290D+00 -0.260913D+00 -0.218932D+00  0.801493D-01  0.194661D+01
     45  0.221716D-01  0.650579D-01  0.545901D-01  0.185498D-01  0.638255D+00
     46  0.603290D+00  0.260913D+00  0.218932D+00  0.801493D-01  0.194661D+01
               21            22            23            24            25 
     21  0.954109D+01
     22  0.547415D+00  0.103022D+02
     23  0.000000D+00  0.000000D+00  0.995437D+01
     24  0.000000D+00  0.000000D+00  0.776093D-01  0.992700D+01
     25  0.722449D+01  0.552654D+00  0.000000D+00  0.000000D+00  0.758242D+01
     26  0.400277D+00  0.477705D+01  0.000000D+00  0.000000D+00  0.834042D+00
     27  0.000000D+00  0.000000D+00  0.442004D+01  0.669317D-01  0.000000D+00
     28  0.000000D+00  0.000000D+00  0.669317D-01  0.439643D+01  0.000000D+00
     29  0.340376D+01  0.309548D+00  0.000000D+00  0.000000D+00  0.475783D+01
     30  0.119276D+00  0.131075D+01  0.000000D+00  0.000000D+00  0.383225D+00
     31  0.000000D+00  0.000000D+00  0.119275D+01  0.202014D-01  0.000000D+00
     32  0.000000D+00  0.000000D+00  0.202014D-01  0.118562D+01  0.000000D+00
     33  0.647992D+01  0.898759D+00  0.000000D+00  0.000000D+00  0.542661D+01
     34  0.619046D+01  0.191035D+00  0.000000D+00  0.000000D+00  0.508958D+01
     35  0.616706D+01  0.201309D+00  0.000000D+00  0.000000D+00  0.506462D+01
     36  0.000000D+00  0.000000D+00  0.330882D+00 -0.504621D-01  0.000000D+00
     37  0.000000D+00  0.000000D+00 -0.504621D-01  0.348678D+00  0.000000D+00
     38  0.114916D+00 -0.504621D-01  0.000000D+00  0.000000D+00  0.122587D+00
     39  0.713885D-01  0.140069D+00  0.443693D-01  0.372303D-01  0.547347D+00
     40  0.991750D+00  0.963411D+00  0.294703D+00  0.247285D+00  0.195008D+01
     41  0.713885D-01  0.140069D+00 -0.443693D-01 -0.372303D-01  0.547347D+00
     42  0.991750D+00  0.963411D+00 -0.294703D+00 -0.247285D+00  0.195008D+01
     43  0.217119D+01 -0.142181D+01  0.185511D+01  0.155662D+01  0.258654D+01
     44  0.400503D+01 -0.800304D+00  0.131755D+01  0.110556D+01  0.472949D+01
     45  0.217119D+01 -0.142181D+01 -0.185511D+01 -0.155662D+01  0.258654D+01
     46  0.400503D+01 -0.800304D+00 -0.131755D+01 -0.110556D+01  0.472949D+01
               26            27            28            29            30 
     26  0.660462D+01
     27  0.000000D+00  0.574574D+01
     28  0.000000D+00  0.114158D+00  0.570548D+01
     29  0.752131D+00  0.000000D+00  0.000000D+00  0.472988D+01
     30  0.329621D+01  0.000000D+00  0.000000D+00  0.585647D+00  0.374321D+01
     31  0.000000D+00  0.285051D+01  0.518959D-01  0.000000D+00  0.000000D+00
     32  0.000000D+00  0.518959D-01  0.283220D+01  0.000000D+00  0.000000D+00
     33  0.781273D+00  0.000000D+00  0.000000D+00  0.270085D+01  0.236087D+00
     34  0.140162D+00  0.000000D+00  0.000000D+00  0.250606D+01  0.405443D-01
     35  0.149992D+00  0.000000D+00  0.000000D+00  0.249240D+01  0.434294D-01
     36  0.000000D+00  0.242767D+00 -0.482802D-01  0.000000D+00  0.000000D+00
     37  0.000000D+00 -0.482802D-01  0.259794D+00  0.000000D+00  0.000000D+00
     38 -0.482802D-01  0.000000D+00  0.000000D+00  0.671357D-01 -0.141701D-01
     39  0.128160D+01  0.432456D+00  0.362874D+00  0.101390D+01  0.140106D+01
     40  0.276772D+01  0.819072D+00  0.687283D+00  0.243420D+01  0.267289D+01
     41  0.128160D+01 -0.432456D+00 -0.362874D+00  0.101390D+01  0.140106D+01
     42  0.276772D+01 -0.819072D+00 -0.687283D+00  0.243420D+01  0.267289D+01
     43 -0.162733D+01  0.211278D+01  0.177284D+01  0.161802D+01 -0.606426D+00
     44 -0.126362D+01  0.205453D+01  0.172396D+01  0.346403D+01 -0.790796D+00
     45 -0.162733D+01 -0.211278D+01 -0.177284D+01  0.161802D+01 -0.606426D+00
     46 -0.126362D+01 -0.205453D+01 -0.172396D+01  0.346403D+01 -0.790796D+00
               31            32            33            34            35 
     31  0.334971D+01
     32  0.412912D-01  0.333514D+01
     33  0.000000D+00  0.000000D+00  0.887461D+01
     34  0.000000D+00  0.000000D+00  0.282281D+01  0.818466D+01
     35  0.000000D+00  0.000000D+00  0.281129D+01  0.273286D+01  0.813425D+01
     36  0.702247D-01 -0.141701D-01  0.000000D+00  0.000000D+00  0.000000D+00
     37 -0.141701D-01  0.752219D-01  0.000000D+00  0.000000D+00  0.000000D+00
     38  0.000000D+00  0.000000D+00  0.565993D-01  0.129945D+00  0.117609D+00
     39  0.489215D+00  0.410500D+00  0.135129D+00  0.259484D-01  0.221716D-01
     40  0.845628D+00  0.709566D+00  0.114867D+01  0.619609D+00  0.603290D+00
     41 -0.489215D+00 -0.410500D+00  0.135129D+00  0.259484D-01  0.221716D-01
     42 -0.845628D+00 -0.709566D+00  0.114867D+01  0.619609D+00  0.603290D+00
     43  0.786038D+00  0.659564D+00  0.155326D+01  0.198548D+01  0.166147D+01
     44  0.122517D+01  0.102804D+01  0.296063D+01  0.299470D+01  0.290569D+01
     45 -0.786038D+00 -0.659564D+00  0.155326D+01  0.198548D+01  0.166147D+01
     46 -0.122517D+01 -0.102804D+01  0.296063D+01  0.299470D+01  0.290569D+01
               36            37            38            39            40 
     36  0.846843D+01
     37  0.980328D-01  0.843386D+01
     38  0.000000D+00  0.000000D+00  0.819859D+01
     39  0.650579D-01  0.545901D-01  0.185498D-01  0.670738D+01
     40  0.260913D+00  0.218932D+00  0.801493D-01  0.405566D+01  0.541359D+01
     41 -0.650579D-01 -0.545901D-01  0.185498D-01  0.103927D+00  0.897561D+00
     42 -0.260913D+00 -0.218932D+00  0.801493D-01  0.897561D+00  0.234661D+01
     43 -0.145177D+01 -0.121818D+01  0.159139D+01  0.390719D-02  0.247619D+00
     44 -0.292248D+00 -0.245225D+00  0.437169D+00  0.247619D+00  0.107106D+01
     45  0.145177D+01  0.121818D+01  0.159139D+01  0.108997D-03  0.592825D-01
     46  0.292248D+00  0.245225D+00  0.437169D+00  0.592825D-01  0.486071D+00
               41            42            43            44            45 
     41  0.670738D+01
     42  0.405566D+01  0.541359D+01
     43  0.108997D-03  0.592825D-01  0.670738D+01
     44  0.592825D-01  0.486071D+00  0.405566D+01  0.541359D+01
     45  0.390719D-02  0.247619D+00  0.103927D+00  0.897561D+00  0.670738D+01
     46  0.247619D+00  0.107106D+01  0.897561D+00  0.234661D+01  0.405566D+01
               46 
     46  0.541359D+01
 ****** Core Hamiltonian ****** 
                1             2             3             4             5 
      1 -0.217682D+02
      2 -0.449791D+01 -0.860884D+01
      3  0.754548D-01  0.547415D+00 -0.812383D+01
      4  0.000000D+00  0.000000D+00  0.000000D+00 -0.777603D+01
      5  0.000000D+00  0.000000D+00  0.000000D+00 -0.776093D-01 -0.774866D+01
      6 -0.386737D+01 -0.691777D+01  0.552654D+00  0.000000D+00  0.000000D+00
      7  0.126760D-01  0.400277D+00 -0.440038D+01  0.000000D+00  0.000000D+00
      8  0.000000D+00  0.000000D+00  0.000000D+00 -0.404336D+01 -0.669317D-01
      9  0.000000D+00  0.000000D+00  0.000000D+00 -0.669317D-01 -0.401976D+01
     10 -0.146643D+01 -0.335510D+01  0.309548D+00  0.000000D+00  0.000000D+00
     11  0.255468D-02  0.119276D+00 -0.127719D+01  0.000000D+00  0.000000D+00
     12  0.000000D+00  0.000000D+00  0.000000D+00 -0.115918D+01 -0.202014D-01
     13  0.000000D+00  0.000000D+00  0.000000D+00 -0.202014D-01 -0.115206D+01
     14 -0.165764D+01 -0.595988D+01  0.898759D+00  0.000000D+00  0.000000D+00
     15 -0.164867D+01 -0.567042D+01  0.191035D+00  0.000000D+00  0.000000D+00
     16 -0.164791D+01 -0.564702D+01  0.201309D+00  0.000000D+00  0.000000D+00
     17  0.000000D+00  0.000000D+00  0.000000D+00  0.330882D+00 -0.504621D-01
     18  0.000000D+00  0.000000D+00  0.000000D+00 -0.504621D-01  0.348678D+00
     19 -0.372017D-02 -0.114916D+00 -0.504621D-01  0.000000D+00  0.000000D+00
     20 -0.187616D-03 -0.417212D+00  0.907603D+00  0.000000D+00  0.000000D+00
     21 -0.417212D+00 -0.199859D+01  0.269926D+01  0.000000D+00  0.000000D+00
     22 -0.907603D+00 -0.269926D+01  0.306283D+01  0.000000D+00  0.000000D+00
     23  0.000000D+00  0.000000D+00  0.000000D+00 -0.981426D+00 -0.421059D-02
     24  0.000000D+00  0.000000D+00  0.000000D+00 -0.421059D-02 -0.979941D+00
     25 -0.135751D+01 -0.324209D+01  0.236849D+01  0.000000D+00  0.000000D+00
     26 -0.272529D+01 -0.487928D+01  0.161843D+01  0.000000D+00  0.000000D+00
     27  0.000000D+00  0.000000D+00  0.000000D+00 -0.180006D+01 -0.179956D-01
     28  0.000000D+00  0.000000D+00  0.000000D+00 -0.179956D-01 -0.179372D+01
     29 -0.110898D+01 -0.263469D+01  0.772828D+00  0.000000D+00  0.000000D+00
     30 -0.116644D+01 -0.248688D+01 -0.265481D+00  0.000000D+00  0.000000D+00
     31  0.000000D+00  0.000000D+00  0.000000D+00 -0.901827D+00 -0.137484D-01
     32  0.000000D+00  0.000000D+00  0.000000D+00 -0.137484D-01 -0.896979D+00
     33 -0.112312D+01 -0.317208D+01  0.373219D+01  0.000000D+00  0.000000D+00
     34 -0.262357D-01 -0.883149D+00  0.130811D+01  0.000000D+00  0.000000D+00
     35 -0.262292D-01 -0.882058D+00  0.130630D+01  0.000000D+00  0.000000D+00
     36  0.000000D+00  0.000000D+00  0.000000D+00 -0.149288D+01 -0.492478D-02
     37  0.000000D+00  0.000000D+00  0.000000D+00 -0.492478D-02 -0.149115D+01
     38 -0.318993D-04 -0.535922D-02  0.889471D-02  0.000000D+00  0.000000D+00
     39 -0.673062D+00 -0.213139D+01 -0.130070D+01 -0.170293D+01 -0.142893D+01
     40 -0.192282D+01 -0.389165D+01 -0.731559D+00 -0.123117D+01 -0.103307D+01
     41 -0.673062D+00 -0.213139D+01 -0.130070D+01  0.170293D+01  0.142893D+01
     42 -0.192282D+01 -0.389165D+01 -0.731559D+00  0.123117D+01  0.103307D+01
     43 -0.100419D-02 -0.867459D-01  0.162290D+00 -0.526771D-01 -0.442014D-01
     44 -0.302194D+00 -0.100482D+01  0.952036D+00 -0.290451D+00 -0.243717D+00
     45 -0.100419D-02 -0.867459D-01  0.162290D+00  0.526771D-01  0.442014D-01
     46 -0.302194D+00 -0.100482D+01  0.952036D+00  0.290451D+00  0.243717D+00
                6             7             8             9            10 
      6 -0.732935D+01
      7  0.834042D+00 -0.618283D+01
      8  0.000000D+00  0.000000D+00 -0.532395D+01
      9  0.000000D+00  0.000000D+00 -0.114158D+00 -0.528369D+01
     10 -0.468192D+01  0.752131D+00  0.000000D+00  0.000000D+00 -0.466418D+01
     11  0.383225D+00 -0.319386D+01  0.000000D+00  0.000000D+00  0.585647D+00
     12  0.000000D+00  0.000000D+00 -0.274815D+01 -0.518959D-01  0.000000D+00
     13  0.000000D+00  0.000000D+00 -0.518959D-01 -0.272985D+01  0.000000D+00
     14 -0.520032D+01  0.781273D+00  0.000000D+00  0.000000D+00 -0.266202D+01
     15 -0.486329D+01  0.140162D+00  0.000000D+00  0.000000D+00 -0.246723D+01
     16 -0.483833D+01  0.149992D+00  0.000000D+00  0.000000D+00 -0.245356D+01
     17  0.000000D+00  0.000000D+00  0.242767D+00 -0.482802D-01  0.000000D+00
     18  0.000000D+00  0.000000D+00 -0.482802D-01  0.259794D+00  0.000000D+00
     19 -0.122587D+00 -0.482802D-01  0.000000D+00  0.000000D+00 -0.671357D-01
     20 -0.135751D+01  0.272529D+01  0.000000D+00  0.000000D+00 -0.110898D+01
     21 -0.324209D+01  0.487928D+01  0.000000D+00  0.000000D+00 -0.263469D+01
     22 -0.236849D+01  0.161843D+01  0.000000D+00  0.000000D+00 -0.772828D+00
     23  0.000000D+00  0.000000D+00 -0.180006D+01 -0.179956D-01  0.000000D+00
     24  0.000000D+00  0.000000D+00 -0.179956D-01 -0.179372D+01  0.000000D+00
     25 -0.453322D+01  0.463227D+01  0.000000D+00  0.000000D+00 -0.387856D+01
     26 -0.463227D+01  0.667974D+00  0.000000D+00  0.000000D+00 -0.200935D+01
     27  0.000000D+00  0.000000D+00 -0.326763D+01 -0.489096D-01  0.000000D+00
     28  0.000000D+00  0.000000D+00 -0.489096D-01 -0.325038D+01  0.000000D+00
     29 -0.387856D+01  0.200935D+01  0.000000D+00  0.000000D+00 -0.419262D+01
     30 -0.306100D+01 -0.103234D+01  0.000000D+00  0.000000D+00 -0.221079D+01
     31  0.000000D+00  0.000000D+00 -0.225573D+01 -0.391128D-01  0.000000D+00
     32  0.000000D+00  0.000000D+00 -0.391128D-01 -0.224194D+01  0.000000D+00
     33 -0.326277D+01  0.363763D+01  0.000000D+00  0.000000D+00 -0.219225D+01
     34 -0.207013D+01  0.344244D+01  0.000000D+00  0.000000D+00 -0.190612D+01
     35 -0.206359D+01  0.342839D+01  0.000000D+00  0.000000D+00 -0.189681D+01
     36  0.000000D+00  0.000000D+00 -0.121447D+01  0.190213D-02  0.000000D+00
     37  0.000000D+00  0.000000D+00  0.190213D-02 -0.121515D+01  0.000000D+00
     38 -0.321260D-01  0.690055D-01  0.000000D+00  0.000000D+00 -0.457084D-01
     39 -0.249304D+01 -0.148729D+01 -0.193681D+01 -0.162518D+01 -0.158983D+01
     40 -0.459663D+01 -0.115609D+01 -0.191942D+01 -0.161058D+01 -0.340437D+01
     41 -0.249304D+01 -0.148729D+01  0.193681D+01  0.162518D+01 -0.158983D+01
     42 -0.459663D+01 -0.115609D+01  0.191942D+01  0.161058D+01 -0.340437D+01
     43 -0.561489D+00  0.126770D+01 -0.427260D+00 -0.358514D+00 -0.100307D+01
     44 -0.194306D+01  0.269463D+01 -0.791744D+00 -0.664352D+00 -0.240668D+01
     45 -0.561489D+00  0.126770D+01  0.427260D+00  0.358514D+00 -0.100307D+01
     46 -0.194306D+01  0.269463D+01  0.791744D+00  0.664352D+00 -0.240668D+01
               11            12            13            14            15 
     11 -0.363371D+01
     12  0.000000D+00 -0.324021D+01
     13  0.000000D+00 -0.412912D-01 -0.322564D+01
     14  0.236087D+00  0.000000D+00  0.000000D+00 -0.714127D+01
     15  0.405443D-01  0.000000D+00  0.000000D+00 -0.295614D+01 -0.645132D+01
     16  0.434294D-01  0.000000D+00  0.000000D+00 -0.294462D+01 -0.286620D+01
     17  0.000000D+00  0.702247D-01 -0.141701D-01  0.000000D+00  0.000000D+00
     18  0.000000D+00 -0.141701D-01  0.752219D-01  0.000000D+00  0.000000D+00
     19 -0.141701D-01  0.000000D+00  0.000000D+00 -0.565993D-01 -0.129945D+00
     20  0.116644D+01  0.000000D+00  0.000000D+00 -0.112312D+01 -0.262357D-01
     21  0.248688D+01  0.000000D+00  0.000000D+00 -0.317208D+01 -0.883149D+00
     22 -0.265481D+00  0.000000D+00  0.000000D+00 -0.373219D+01 -0.130811D+01
     23  0.000000D+00 -0.901827D+00 -0.137484D-01  0.000000D+00  0.000000D+00
     24  0.000000D+00 -0.137484D-01 -0.896979D+00  0.000000D+00  0.000000D+00
     25  0.306100D+01  0.000000D+00  0.000000D+00 -0.326277D+01 -0.207013D+01
     26 -0.103234D+01  0.000000D+00  0.000000D+00 -0.363763D+01 -0.344244D+01
     27  0.000000D+00 -0.225573D+01 -0.391128D-01  0.000000D+00  0.000000D+00
     28  0.000000D+00 -0.391128D-01 -0.224194D+01  0.000000D+00  0.000000D+00
     29  0.221079D+01  0.000000D+00  0.000000D+00 -0.219225D+01 -0.190612D+01
     30 -0.198307D+01  0.000000D+00  0.000000D+00 -0.179941D+01 -0.187979D+01
     31  0.000000D+00 -0.288225D+01 -0.368649D-01  0.000000D+00  0.000000D+00
     32  0.000000D+00 -0.368649D-01 -0.286925D+01  0.000000D+00  0.000000D+00
     33  0.179941D+01  0.000000D+00  0.000000D+00 -0.415900D+01 -0.148459D+01
     34  0.187979D+01  0.000000D+00  0.000000D+00 -0.148459D+01 -0.636690D+00
     35  0.186831D+01  0.000000D+00  0.000000D+00 -0.148301D+01 -0.265680D+00
     36  0.000000D+00 -0.217835D+00  0.771132D-02  0.000000D+00  0.000000D+00
     37  0.000000D+00  0.771132D-02 -0.220555D+00  0.000000D+00  0.000000D+00
     38  0.563571D-01  0.000000D+00  0.000000D+00 -0.777619D-02 -0.311731D-02
     39 -0.585438D+00 -0.759664D+00 -0.637434D+00 -0.151662D+01 -0.187845D+01
     40 -0.754006D+00 -0.117894D+01 -0.989250D+00 -0.287548D+01 -0.289958D+01
     41 -0.585438D+00  0.759664D+00  0.637434D+00 -0.151662D+01 -0.187845D+01
     42 -0.754006D+00  0.117894D+01  0.989250D+00 -0.287548D+01 -0.289958D+01
     43  0.136708D+01 -0.476507D+00 -0.399837D+00 -0.161300D+00 -0.346417D-01
     44  0.260527D+01 -0.820345D+00 -0.688351D+00 -0.114756D+01 -0.633735D+00
     45  0.136708D+01  0.476507D+00  0.399837D+00 -0.161300D+00 -0.346417D-01
     46  0.260527D+01  0.820345D+00  0.688351D+00 -0.114756D+01 -0.633735D+00
               16            17            18            19            20 
     16 -0.640092D+01
     17  0.000000D+00 -0.566843D+01
     18  0.000000D+00 -0.980328D-01 -0.563386D+01
     19 -0.117609D+00  0.000000D+00  0.000000D+00 -0.539859D+01
     20 -0.262292D-01  0.000000D+00  0.000000D+00 -0.318993D-04 -0.217682D+02
     21 -0.882058D+00  0.000000D+00  0.000000D+00 -0.535922D-02 -0.449791D+01
     22 -0.130630D+01  0.000000D+00  0.000000D+00 -0.889471D-02 -0.754548D-01
     23  0.000000D+00  0.149288D+01  0.492478D-02  0.000000D+00  0.000000D+00
     24  0.000000D+00  0.492478D-02  0.149115D+01  0.000000D+00  0.000000D+00
     25 -0.206359D+01  0.000000D+00  0.000000D+00 -0.321260D-01 -0.386737D+01
     26 -0.342839D+01  0.000000D+00  0.000000D+00 -0.690055D-01 -0.126760D-01
     27  0.000000D+00  0.121447D+01 -0.190213D-02  0.000000D+00  0.000000D+00
     28  0.000000D+00 -0.190213D-02  0.121515D+01  0.000000D+00  0.000000D+00
     29 -0.189681D+01  0.000000D+00  0.000000D+00 -0.457084D-01 -0.146643D+01
     30 -0.186831D+01  0.000000D+00  0.000000D+00 -0.563571D-01 -0.255468D-02
     31  0.000000D+00  0.217835D+00 -0.771132D-02  0.000000D+00  0.000000D+00
     32  0.000000D+00 -0.771132D-02  0.220555D+00  0.000000D+00  0.000000D+00
     33 -0.148301D+01  0.000000D+00  0.000000D+00 -0.777619D-02 -0.165764D+01
     34 -0.265680D+00  0.000000D+00  0.000000D+00 -0.311731D-02 -0.164867D+01
     35 -0.635439D+00  0.000000D+00  0.000000D+00 -0.302649D-02 -0.164791D+01
     36  0.000000D+00  0.225465D+01  0.702217D-02  0.000000D+00  0.000000D+00
     37  0.000000D+00  0.702217D-02  0.225217D+01  0.000000D+00  0.000000D+00
     38 -0.302649D-02  0.000000D+00  0.000000D+00 -0.556008D+00 -0.372017D-02
     39 -0.161124D+01 -0.118716D+01 -0.996149D+00 -0.131239D+01 -0.100419D-02
     40 -0.281861D+01 -0.254754D+00 -0.213764D+00 -0.397635D+00 -0.302194D+00
     41 -0.161124D+01  0.118716D+01  0.996149D+00 -0.131239D+01 -0.100419D-02
     42 -0.281861D+01  0.254754D+00  0.213764D+00 -0.397635D+00 -0.302194D+00
     43 -0.300245D-01  0.782149D-01  0.656301D-01 -0.226773D-01 -0.673062D+00
     44 -0.618149D+00  0.249440D+00  0.209305D+00 -0.765502D-01 -0.192282D+01
     45 -0.300245D-01 -0.782149D-01 -0.656301D-01 -0.226773D-01 -0.673062D+00
     46 -0.618149D+00 -0.249440D+00 -0.209305D+00 -0.765502D-01 -0.192282D+01
               21            22            23            24            25 
     21 -0.860884D+01
     22 -0.547415D+00 -0.812383D+01
     23  0.000000D+00  0.000000D+00 -0.777603D+01
     24  0.000000D+00  0.000000D+00 -0.776093D-01 -0.774866D+01
     25 -0.691777D+01 -0.552654D+00  0.000000D+00  0.000000D+00 -0.732935D+01
     26 -0.400277D+00 -0.440038D+01  0.000000D+00  0.000000D+00 -0.834042D+00
     27  0.000000D+00  0.000000D+00 -0.404336D+01 -0.669317D-01  0.000000D+00
     28  0.000000D+00  0.000000D+00 -0.669317D-01 -0.401976D+01  0.000000D+00
     29 -0.335510D+01 -0.309548D+00  0.000000D+00  0.000000D+00 -0.468192D+01
     30 -0.119276D+00 -0.127719D+01  0.000000D+00  0.000000D+00 -0.383225D+00
     31  0.000000D+00  0.000000D+00 -0.115918D+01 -0.202014D-01  0.000000D+00
     32  0.000000D+00  0.000000D+00 -0.202014D-01 -0.115206D+01  0.000000D+00
     33 -0.595988D+01 -0.898759D+00  0.000000D+00  0.000000D+00 -0.520032D+01
     34 -0.567042D+01 -0.191035D+00  0.000000D+00  0.000000D+00 -0.486329D+01
     35 -0.564702D+01 -0.201309D+00  0.000000D+00  0.000000D+00 -0.483833D+01
     36  0.000000D+00  0.000000D+00 -0.330882D+00  0.504621D-01  0.000000D+00
     37  0.000000D+00  0.000000D+00  0.504621D-01 -0.348678D+00  0.000000D+00
     38 -0.114916D+00  0.504621D-01  0.000000D+00  0.000000D+00 -0.122587D+00
     39 -0.867459D-01 -0.162290D+00 -0.526771D-01 -0.442014D-01 -0.561489D+00
     40 -0.100482D+01 -0.952036D+00 -0.290451D+00 -0.243717D+00 -0.194306D+01
     41 -0.867459D-01 -0.162290D+00  0.526771D-01  0.442014D-01 -0.561489D+00
     42 -0.100482D+01 -0.952036D+00  0.290451D+00  0.243717D+00 -0.194306D+01
     43 -0.213139D+01  0.130070D+01 -0.170293D+01 -0.142893D+01 -0.249304D+01
     44 -0.389165D+01  0.731559D+00 -0.123117D+01 -0.103307D+01 -0.459663D+01
     45 -0.213139D+01  0.130070D+01  0.170293D+01  0.142893D+01 -0.249304D+01
     46 -0.389165D+01  0.731559D+00  0.123117D+01  0.103307D+01 -0.459663D+01
               26            27            28            29            30 
     26 -0.618283D+01
     27  0.000000D+00 -0.532395D+01
     28  0.000000D+00 -0.114158D+00 -0.528369D+01
     29 -0.752131D+00  0.000000D+00  0.000000D+00 -0.466418D+01
     30 -0.319386D+01  0.000000D+00  0.000000D+00 -0.585647D+00 -0.363371D+01
     31  0.000000D+00 -0.274815D+01 -0.518959D-01  0.000000D+00  0.000000D+00
     32  0.000000D+00 -0.518959D-01 -0.272985D+01  0.000000D+00  0.000000D+00
     33 -0.781273D+00  0.000000D+00  0.000000D+00 -0.266202D+01 -0.236087D+00
     34 -0.140162D+00  0.000000D+00  0.000000D+00 -0.246723D+01 -0.405443D-01
     35 -0.149992D+00  0.000000D+00  0.000000D+00 -0.245356D+01 -0.434294D-01
     36  0.000000D+00 -0.242767D+00  0.482802D-01  0.000000D+00  0.000000D+00
     37  0.000000D+00  0.482802D-01 -0.259794D+00  0.000000D+00  0.000000D+00
     38  0.482802D-01  0.000000D+00  0.000000D+00 -0.671357D-01  0.141701D-01
     39 -0.126770D+01 -0.427260D+00 -0.358514D+00 -0.100307D+01 -0.136708D+01
     40 -0.269463D+01 -0.791744D+00 -0.664352D+00 -0.240668D+01 -0.260527D+01
     41 -0.126770D+01  0.427260D+00  0.358514D+00 -0.100307D+01 -0.136708D+01
     42 -0.269463D+01  0.791744D+00  0.664352D+00 -0.240668D+01 -0.260527D+01
     43  0.148729D+01 -0.193681D+01 -0.162518D+01 -0.158983D+01  0.585438D+00
     44  0.115609D+01 -0.191942D+01 -0.161058D+01 -0.340437D+01  0.754006D+00
     45  0.148729D+01  0.193681D+01  0.162518D+01 -0.158983D+01  0.585438D+00
     46  0.115609D+01  0.191942D+01  0.161058D+01 -0.340437D+01  0.754006D+00
               31            32            33            34            35 
     31 -0.324021D+01
     32 -0.412912D-01 -0.322564D+01
     33  0.000000D+00  0.000000D+00 -0.714127D+01
     34  0.000000D+00  0.000000D+00 -0.295614D+01 -0.645132D+01
     35  0.000000D+00  0.000000D+00 -0.294462D+01 -0.286620D+01 -0.640092D+01
     36 -0.702247D-01  0.141701D-01  0.000000D+00  0.000000D+00  0.000000D+00
     37  0.141701D-01 -0.752219D-01  0.000000D+00  0.000000D+00  0.000000D+00
     38  0.000000D+00  0.000000D+00 -0.565993D-01 -0.129945D+00 -0.117609D+00
     39 -0.476507D+00 -0.399837D+00 -0.161300D+00 -0.346417D-01 -0.300245D-01
     40 -0.820345D+00 -0.688351D+00 -0.114756D+01 -0.633735D+00 -0.618149D+00
     41  0.476507D+00  0.399837D+00 -0.161300D+00 -0.346417D-01 -0.300245D-01
     42  0.820345D+00  0.688351D+00 -0.114756D+01 -0.633735D+00 -0.618149D+00
     43 -0.759664D+00 -0.637434D+00 -0.151662D+01 -0.187845D+01 -0.161124D+01
     44 -0.117894D+01 -0.989250D+00 -0.287548D+01 -0.289958D+01 -0.281861D+01
     45  0.759664D+00  0.637434D+00 -0.151662D+01 -0.187845D+01 -0.161124D+01
     46  0.117894D+01  0.989250D+00 -0.287548D+01 -0.289958D+01 -0.281861D+01
               36            37            38            39            40 
     36 -0.566843D+01
     37 -0.980328D-01 -0.563386D+01
     38  0.000000D+00  0.000000D+00 -0.539859D+01
     39 -0.782149D-01 -0.656301D-01 -0.226773D-01 -0.531170D+01
     40 -0.249440D+00 -0.209305D+00 -0.765502D-01 -0.379592D+01 -0.517167D+01
     41  0.782149D-01  0.656301D-01 -0.226773D-01 -0.125459D+00 -0.902186D+00
     42  0.249440D+00  0.209305D+00 -0.765502D-01 -0.902186D+00 -0.231752D+01
     43  0.118716D+01  0.996149D+00 -0.131239D+01 -0.595969D-02 -0.260855D+00
     44  0.254754D+00  0.213764D+00 -0.397635D+00 -0.260855D+00 -0.107865D+01
[...]
  22        2PX         0.03225   0.01634   0.00000   0.00000  -0.00176
  23        2PY         0.00000   0.00000   0.02008   0.00000   0.00000
  24        2PZ         0.00000   0.00000   0.00000   0.02880   0.00000
  25        3S         -0.00927   0.01905   0.00000   0.00000   0.01145
  26        3PX         0.01905   0.00165   0.00000   0.00000  -0.00232
  27        3PY         0.00000   0.00000   0.02857   0.00000   0.00000
  28        3PZ         0.00000   0.00000   0.00000   0.04223   0.00000
  29        4S          0.01145  -0.00232   0.00000   0.00000  -0.00216
  30        4PX         0.00442  -0.00172   0.00000   0.00000  -0.00118
  31        4PY         0.00000   0.00000   0.00302   0.00000   0.00000
  32        4PZ         0.00000   0.00000   0.00000   0.00600   0.00000
  33        5XX         0.00278   0.00028   0.00000   0.00000  -0.00013
  34        5YY        -0.00120  -0.00124   0.00000   0.00000   0.00021
  35        5ZZ        -0.00100  -0.00109   0.00000   0.00000   0.00010
  36        5XY         0.00000   0.00000   0.00120   0.00000   0.00000
  37        5XZ         0.00000   0.00000   0.00000   0.00124   0.00000
  38        5YZ         0.00000   0.00000   0.00000   0.00000   0.00000
  39 3   H  1S          0.04267   0.01411   0.02409   0.01696  -0.00130
  40        2S          0.02640   0.01045   0.02093   0.01473  -0.00027
  41 4   H  1S          0.04267   0.01411   0.02409   0.01696  -0.00130
  42        2S          0.02640   0.01045   0.02093   0.01473  -0.00027
  43 5   H  1S         -0.00237  -0.00288  -0.00077  -0.00054   0.00241
  44        2S         -0.00553  -0.00752  -0.00252  -0.00178   0.00324
  45 6   H  1S         -0.00237  -0.00288  -0.00077  -0.00054   0.00241
  46        2S         -0.00553  -0.00752  -0.00252  -0.00178   0.00324
                          11        12        13        14        15
  11        4PX         0.00267
  12        4PY         0.00000   0.00491
  13        4PZ         0.00000   0.00000   0.00523
  14        5XX         0.00000   0.00000   0.00000   0.00051
  15        5YY         0.00000   0.00000   0.00000  -0.00004   0.00054
  16        5ZZ         0.00000   0.00000   0.00000  -0.00002   0.00016
  17        5XY         0.00000   0.00000   0.00000   0.00000   0.00000
  18        5XZ         0.00000   0.00000   0.00000   0.00000   0.00000
  19        5YZ         0.00000   0.00000   0.00000   0.00000   0.00000
  20 2   C  1S         -0.00065   0.00000   0.00000  -0.00029   0.00000
  21        2S          0.00337   0.00000   0.00000   0.00322  -0.00060
  22        2PX        -0.00121   0.00000   0.00000   0.00156  -0.00135
  23        2PY         0.00000   0.00096   0.00000   0.00000   0.00000
  24        2PZ         0.00000   0.00000   0.00233   0.00000   0.00000
  25        3S          0.00442   0.00000   0.00000   0.00278  -0.00120
  26        3PX        -0.00172   0.00000   0.00000   0.00028  -0.00124
  27        3PY         0.00000   0.00302   0.00000   0.00000   0.00000
  28        3PZ         0.00000   0.00000   0.00600   0.00000   0.00000
  29        4S         -0.00118   0.00000   0.00000  -0.00013   0.00021
  30        4PX        -0.00081   0.00000   0.00000   0.00003  -0.00013
  31        4PY         0.00000   0.00041   0.00000   0.00000   0.00000
  32        4PZ         0.00000   0.00000   0.00183   0.00000   0.00000
  33        5XX         0.00003   0.00000   0.00000   0.00004  -0.00003
  34        5YY        -0.00013   0.00000   0.00000  -0.00003   0.00002
  35        5ZZ        -0.00012   0.00000   0.00000  -0.00004   0.00001
  36        5XY         0.00000   0.00005   0.00000   0.00000   0.00000
  37        5XZ         0.00000   0.00000   0.00005   0.00000   0.00000
  38        5YZ         0.00000   0.00000   0.00000   0.00000   0.00000
  39 3   H  1S          0.00142   0.00225   0.00159  -0.00054   0.00068
  40        2S          0.00185   0.00384   0.00270  -0.00072   0.00089
  41 4   H  1S          0.00142   0.00225   0.00159  -0.00054   0.00068
  42        2S          0.00185   0.00384   0.00270  -0.00072   0.00089
  43 5   H  1S         -0.00059  -0.00083  -0.00059   0.00003   0.00000
  44        2S         -0.00204  -0.00178  -0.00126   0.00001   0.00012
  45 6   H  1S         -0.00059  -0.00083  -0.00059   0.00003   0.00000
  46        2S         -0.00204  -0.00178  -0.00126   0.00001   0.00012
                          16        17        18        19        20
  16        5ZZ         0.00049
  17        5XY         0.00000   0.00133
  18        5XZ         0.00000   0.00000   0.00109
  19        5YZ         0.00000   0.00000   0.00000   0.00082
  20 2   C  1S          0.00000   0.00000   0.00000   0.00000   2.05312
  21        2S         -0.00055   0.00000   0.00000   0.00000  -0.01404
  22        2PX        -0.00126   0.00000   0.00000   0.00000   0.00000
  23        2PY         0.00000   0.00258   0.00000   0.00000   0.00000
  24        2PZ         0.00000   0.00000   0.00253   0.00000   0.00000
  25        3S         -0.00100   0.00000   0.00000   0.00000  -0.03011
  26        3PX        -0.00109   0.00000   0.00000   0.00000   0.00000
  27        3PY         0.00000   0.00120   0.00000   0.00000   0.00000
  28        3PZ         0.00000   0.00000   0.00124   0.00000   0.00000
  29        4S          0.00010   0.00000   0.00000   0.00000   0.00252
  30        4PX        -0.00012   0.00000   0.00000   0.00000   0.00000
  31        4PY         0.00000   0.00005   0.00000   0.00000   0.00000
  32        4PZ         0.00000   0.00000   0.00005   0.00000   0.00000
  33        5XX        -0.00004   0.00000   0.00000   0.00000  -0.00149
  34        5YY         0.00001   0.00000   0.00000   0.00000  -0.00136
  35        5ZZ         0.00002   0.00000   0.00000   0.00000  -0.00121
  36        5XY         0.00000  -0.00025   0.00000   0.00000   0.00000
  37        5XZ         0.00000   0.00000  -0.00013   0.00000   0.00000
  38        5YZ         0.00000   0.00000   0.00000   0.00000   0.00000
  39 3   H  1S          0.00001   0.00209   0.00147   0.00177   0.00000
  40        2S          0.00040   0.00042   0.00030   0.00020   0.00017
  41 4   H  1S          0.00001   0.00209   0.00147   0.00177   0.00000
  42        2S          0.00040   0.00042   0.00030   0.00020   0.00017
  43 5   H  1S          0.00000   0.00006   0.00004   0.00000  -0.00192
  44        2S          0.00010   0.00023   0.00016   0.00001  -0.00126
  45 6   H  1S          0.00000   0.00006   0.00004   0.00000  -0.00192
  46        2S          0.00010   0.00023   0.00016   0.00001  -0.00126
                          21        22        23        24        25
  21        2S          0.32520
  22        2PX         0.00000   0.42314
  23        2PY         0.00000   0.00000   0.37561
  24        2PZ         0.00000   0.00000   0.00000   0.36006
  25        3S          0.21825   0.00000   0.00000   0.00000   0.23507
  26        3PX         0.00000   0.07881   0.00000   0.00000   0.00000
  27        3PY         0.00000   0.00000   0.10431   0.00000   0.00000
  28        3PZ         0.00000   0.00000   0.00000   0.10786   0.00000
  29        4S         -0.00602   0.00000   0.00000   0.00000  -0.01170
  30        4PX         0.00000   0.00533   0.00000   0.00000   0.00000
  31        4PY         0.00000   0.00000   0.00647   0.00000   0.00000
  32        4PZ         0.00000   0.00000   0.00000   0.00670   0.00000
  33        5XX         0.00024   0.00000   0.00000   0.00000  -0.00016
  34        5YY        -0.00298   0.00000   0.00000   0.00000  -0.00070
  35        5ZZ        -0.00568   0.00000   0.00000   0.00000  -0.00297
  36        5XY         0.00000   0.00000   0.00000   0.00000   0.00000
  37        5XZ         0.00000   0.00000   0.00000   0.00000   0.00000
  38        5YZ         0.00000   0.00000   0.00000   0.00000   0.00000
  39 3   H  1S         -0.00022  -0.00058  -0.00008  -0.00006  -0.00237
  40        2S         -0.00287  -0.00589  -0.00123  -0.00087  -0.00553
  41 4   H  1S         -0.00022  -0.00058  -0.00008  -0.00006  -0.00237
  42        2S         -0.00287  -0.00589  -0.00123  -0.00087  -0.00553
  43 5   H  1S          0.03164   0.02616   0.04154   0.02925   0.04267
  44        2S          0.01545   0.01351   0.02278   0.01604   0.02640
  45 6   H  1S          0.03164   0.02616   0.04154   0.02925   0.04267
  46        2S          0.01545   0.01351   0.02278   0.01604   0.02640
                          26        27        28        29        30
  26        3PX         0.04700
  27        3PY         0.00000   0.09383
  28        3PZ         0.00000   0.00000   0.10423
  29        4S          0.00000   0.00000   0.00000   0.00384
  30        4PX         0.00648   0.00000   0.00000   0.00000   0.00267
  31        4PY         0.00000   0.01206   0.00000   0.00000   0.00000
  32        4PZ         0.00000   0.00000   0.01334   0.00000   0.00000
  33        5XX         0.00000   0.00000   0.00000   0.00006   0.00000
  34        5YY         0.00000   0.00000   0.00000  -0.00004   0.00000
  35        5ZZ         0.00000   0.00000   0.00000   0.00001   0.00000
  36        5XY         0.00000   0.00000   0.00000   0.00000   0.00000
  37        5XZ         0.00000   0.00000   0.00000   0.00000   0.00000
  38        5YZ         0.00000   0.00000   0.00000   0.00000   0.00000
  39 3   H  1S         -0.00288  -0.00077  -0.00054   0.00241  -0.00059
  40        2S         -0.00752  -0.00252  -0.00178   0.00324  -0.00204
  41 4   H  1S         -0.00288  -0.00077  -0.00054   0.00241  -0.00059
  42        2S         -0.00752  -0.00252  -0.00178   0.00324  -0.00204
  43 5   H  1S          0.01411   0.02409   0.01696  -0.00130   0.00142
  44        2S          0.01045   0.02093   0.01473  -0.00027   0.00185
  45 6   H  1S          0.01411   0.02409   0.01696  -0.00130   0.00142
  46        2S          0.01045   0.02093   0.01473  -0.00027   0.00185
                          31        32        33        34        35
  31        4PY         0.00491
  32        4PZ         0.00000   0.00523
  33        5XX         0.00000   0.00000   0.00051
  34        5YY         0.00000   0.00000  -0.00004   0.00054
  35        5ZZ         0.00000   0.00000  -0.00002   0.00016   0.00049
  36        5XY         0.00000   0.00000   0.00000   0.00000   0.00000
  37        5XZ         0.00000   0.00000   0.00000   0.00000   0.00000
  38        5YZ         0.00000   0.00000   0.00000   0.00000   0.00000
  39 3   H  1S         -0.00083  -0.00059   0.00003   0.00000   0.00000
  40        2S         -0.00178  -0.00126   0.00001   0.00012   0.00010
  41 4   H  1S         -0.00083  -0.00059   0.00003   0.00000   0.00000
  42        2S         -0.00178  -0.00126   0.00001   0.00012   0.00010
  43 5   H  1S          0.00225   0.00159  -0.00054   0.00068   0.00001
  44        2S          0.00384   0.00270  -0.00072   0.00089   0.00040
  45 6   H  1S          0.00225   0.00159  -0.00054   0.00068   0.00001
  46        2S          0.00384   0.00270  -0.00072   0.00089   0.00040
                          36        37        38        39        40
  36        5XY         0.00133
  37        5XZ         0.00000   0.00109
  38        5YZ         0.00000   0.00000   0.00082
  39 3   H  1S          0.00006   0.00004   0.00000   0.21506
  40        2S          0.00023   0.00016   0.00001   0.09368   0.10419
  41 4   H  1S          0.00006   0.00004   0.00000  -0.00049  -0.00693
  42        2S          0.00023   0.00016   0.00001  -0.00693  -0.01889
  43 5   H  1S          0.00209   0.00147   0.00177  -0.00001  -0.00100
  44        2S          0.00042   0.00030   0.00020  -0.00100  -0.00467
  45 6   H  1S          0.00209   0.00147   0.00177   0.00000   0.00034
  46        2S          0.00042   0.00030   0.00020   0.00034   0.00325
                          41        42        43        44        45
  41 4   H  1S          0.21506
  42        2S          0.09368   0.10419
  43 5   H  1S          0.00000   0.00034   0.21506
  44        2S          0.00034   0.00325   0.09368   0.10419
  45 6   H  1S         -0.00001  -0.00100  -0.00049  -0.00693   0.21506
  46        2S         -0.00100  -0.00467  -0.00693  -0.01889   0.09368
                          46
  46        2S          0.10419
     Gross orbital populations:
                           1
   1 1   C  1S          1.99180
   2        2S          0.70823
   3        2PX         0.76616
   4        2PY         0.65332
   5        2PZ         0.62026
   6        3S          0.59577
   7        3PX         0.21359
   8        3PY         0.34651
   9        3PZ         0.36245
  10        4S          0.00441
  11        4PX         0.01775
  12        4PY         0.03483
  13        4PZ         0.04036
  14        5XX         0.00409
  15        5YY        -0.00535
  16        5ZZ        -0.01211
  17        5XY         0.01049
  18        5XZ         0.00872
  19        5YZ         0.00478
  20 2   C  1S          1.99180
  21        2S          0.70823
  22        2PX         0.76616
  23        2PY         0.65332
  24        2PZ         0.62026
  25        3S          0.59577
  26        3PX         0.21359
  27        3PY         0.34651
  28        3PZ         0.36245
  29        4S          0.00441
  30        4PX         0.01775
  31        4PY         0.03483
  32        4PZ         0.04036
  33        5XX         0.00409
  34        5YY        -0.00535
  35        5ZZ        -0.01211
  36        5XY         0.01049
  37        5XZ         0.00872
  38        5YZ         0.00478
  39 3   H  1S          0.52762
  40        2S          0.28934
  41 4   H  1S          0.52762
  42        2S          0.28934
  43 5   H  1S          0.52762
  44        2S          0.28934
  45 6   H  1S          0.52762
  46        2S          0.28934
          Condensed to atoms (all electrons):
              1          2          3          4          5          6
     1  C    5.006812   0.666551   0.382565   0.382565  -0.036206  -0.036206
     2  C    0.666551   5.006812  -0.036206  -0.036206   0.382565   0.382565
     3  H    0.382565  -0.036206   0.506606  -0.033238  -0.006694   0.003927
     4  H    0.382565  -0.036206  -0.033238   0.506606   0.003927  -0.006694
     5  H   -0.036206   0.382565  -0.006694   0.003927   0.506606  -0.033238
     6  H   -0.036206   0.382565   0.003927  -0.006694  -0.033238   0.506606
 Mulliken atomic charges:
              1
     1  C   -0.366079
     2  C   -0.366079
     3  H    0.183040
     4  H    0.183040
     5  H    0.183040
     6  H    0.183040
 Sum of Mulliken atomic charges =   0.00000
 Mulliken charges with hydrogens summed into heavy atoms:
              1
     1  C    0.000000
     2  C    0.000000
 Sum of Mulliken charges with hydrogens summed into heavy atoms =   0.00000
 Electronic spatial extent (au):  <R**2>=           1512.8228
 Charge=              0.0000 electrons
 Dipole moment (field-independent basis, Debye):
    X=              0.0000    Y=              0.0000    Z=              0.0000  Tot=              0.0000
 Quadrupole moment (field-independent basis, Debye-Ang):
   XX=            -12.4310   YY=            -13.9476   ZZ=            -14.5953
   XY=              0.0000   XZ=              0.0000   YZ=              1.8363
 Traceless Quadrupole moment (field-independent basis, Debye-Ang):
   XX=              1.2270   YY=             -0.2897   ZZ=             -0.9373
   XY=              0.0000   XZ=              0.0000   YZ=              1.8363
 Octapole moment (field-independent basis, Debye-Ang**2):
  XXX=              0.0000  YYY=              0.0000  ZZZ=           -218.9288  XYY=              0.0000
  XXY=              0.0000  XXZ=            -62.1550  XZZ=              0.0000  YZZ=             18.3634
  YYZ=            -69.7382  XYZ=              0.0000
 Hexadecapole moment (field-independent basis, Debye-Ang**3):
 XXXX=            -71.8899 YYYY=            -27.1168 ZZZZ=          -2215.3483 XXXY=              0.0000
 XXXZ=              0.0000 YYYX=              0.0000 YYYZ=             -1.3346 ZZZX=              0.0000
 ZZZY=            136.0618 XXYY=            -15.3119 XXZZ=           -326.5347 YYZZ=           -356.9505
 XXYZ=              1.2692 YYXZ=              0.0000 ZZXY=              0.0000
 N-N= 3.305010005892D+01 E-N=-2.472641087202D+02  KE= 7.767047026014D+01
 Orbital energies and kinetic energies (alpha):
                                 1                 2
   1         O               -10.198703         15.874670
   2         O               -10.197897         15.886916
   3         O                -0.762053          1.528100
   4         O                -0.584476          1.282446
   5         O                -0.472678          0.935690
   6         O                -0.422672          1.269326
   7         O                -0.363215          1.044441
   8         O                -0.275953          1.013647
   9         V                -0.009876          0.964066
  10         V                 0.025024          0.341817
  11         V                 0.032575          0.287589
  12         V                 0.046705          0.318880
  13         V                 0.069551          0.276666
  14         V                 0.086732          0.256600
  15         V                 0.087461          0.276573
  16         V                 0.127524          0.579861
  17         V                 0.156687          0.463494
  18         V                 0.176421          0.805551
  19         V                 0.190395          0.873098
  20         V                 0.243032          0.901159
  21         V                 0.342328          1.163276
  22         V                 0.347548          1.370092
  23         V                 0.579936          1.628928
  24         V                 0.657848          1.825189
  25         V                 0.674679          2.105343
  26         V                 0.719165          2.271294
  27         V                 0.756769          2.806950
  28         V                 0.819614          1.644772
  29         V                 0.899526          2.281437
  30         V                 0.936428          2.781921
  31         V                 0.963240          2.524767
  32         V                 1.002183          2.539113
  33         V                 1.162038          2.270941
  34         V                 1.219688          2.243620
  35         V                 1.447798          2.641587
  36         V                 1.538976          2.655089
  37         V                 1.816524          2.968520
  38         V                 1.885237          3.096124
  39         V                 1.999374          3.473801
  40         V                 2.107687          3.468351
  41         V                 2.291998          3.603282
  42         V                 2.370105          3.596066
  43         V                 2.665020          4.101752
  44         V                 2.700458          4.772241
  45         V                 4.115897         10.136617
  46         V                 4.251467         10.023462
 Total kinetic energy from orbitals= 7.767047026014D+01

 Test job not archived.
 1\1\GINC-N23\SP\RB3LYP\6-31+G(d)\C2H4\SIM_JOBR9774\22-Mar-2018\0\\#b3l
 yp/6-31+g* scf=tight nosymm punch=mo iop(3/33=1) pop=full\\9_11_07\\0,
 1\C,0,0.672749,0.,5.\C,0,-0.672749,0.,5.\H,0,1.242623,0.716103,5.60088
 2\H,0,1.242623,-0.716103,4.399118\H,0,-1.242623,0.716103,5.600882\H,0,
 -1.242623,-0.716103,4.399118\\Version=EM64L-G09RevA.01\HF=-78.5929815\
 RMSD=1.148e-09\Dipole=0.,0.,0.\Quadrupole=0.9122157,-0.2153635,-0.6968
 522,0.,0.,1.3652755\PG=D02H [C2"(C1.C1),SG(H4)]\\@


 NEVER TEACH A PIG TO SING.
 IT WASTES YOUR TIME AND ANNOYS THE PIG.
     -- SEEN ON A GREETING CARD
 Job cpu time:  0 days  0 hours  0 minutes  6.6 seconds.
 File lengths (MBytes):  RWF=      5 Int=      0 D2E=      0 Chk=      1 Scr=      1
 Normal termination of Gaussian 09 at Thu Mar 22 16:20:51 2018.
