 Entering Gaussian System, Link 0=/home/apps/gaussian_6_9/g09/g09
 Initial command:
 /home/apps/gaussian_6_9/g09/l1.exe /scratch/Gau-30870.inp -scrdir=/scratch/
 Entering Link 1 = /home/apps/gaussian_6_9/g09/l1.exe PID=     30871.
  
 Copyright (c) 1988,1990,1992,1993,1995,1998,2003,2009, Gaussian, Inc.
                  All Rights Reserved.
  
 This is part of the Gaussian(R) 09 program.  It is based on
 the Gaussian(R) 03 system (copyright 2003, Gaussian, Inc.),
 the Gaussian(R) 98 system (copyright 1998, Gaussian, Inc.),
 the Gaussian(R) 94 system (copyright 1995, Gaussian, Inc.),
 the Gaussian 92(TM) system (copyright 1992, Gaussian, Inc.),
 the Gaussian 90(TM) system (copyright 1990, Gaussian, Inc.),
 the Gaussian 88(TM) system (copyright 1988, Gaussian, Inc.),
 the Gaussian 86(TM) system (copyright 1986, Carnegie Mellon
 University), and the Gaussian 82(TM) system (copyright 1983,
 Carnegie Mellon University). Gaussian is a federally registered
 trademark of Gaussian, Inc.
  
 This software contains proprietary and confidential information,
 including trade secrets, belonging to Gaussian, Inc.
  
 This software is provided under written license and may be
 used, copied, transmitted, or stored only in accord with that
 written license.
  
 The following legend is applicable only to US Government
 contracts under FAR:
  
                    RESTRICTED RIGHTS LEGEND
  
 Use, reproduction and disclosure by the US Government is
 subject to restrictions as set forth in subparagraphs (a)
 and (c) of the Commercial Computer Software - Restricted
 Rights clause in FAR 52.227-19.
  
 Gaussian, Inc.
 340 Quinnipiac St., Bldg. 40, Wallingford CT 06492
  
  
 ---------------------------------------------------------------
 Warning -- This program may not be used in any manner that
 competes with the business of Gaussian, Inc. or will provide
 assistance to any competitor of Gaussian, Inc.  The licensee
 of this program is prohibited from giving any competitor of
 Gaussian, Inc. access to this program.  By using this program,
 the user acknowledges that Gaussian, Inc. is engaged in the
 business of creating and licensing software in the field of
 computational chemistry and represents and warrants to the
 licensee that it is not a competitor of Gaussian, Inc. and that
 it will not use this program in any manner prohibited above.
 ---------------------------------------------------------------
  

 Cite this work as:
 Gaussian 09, Revision A.01,
 M. J. Frisch, G. W. Trucks, H. B. Schlegel, G. E. Scuseria, 
 M. A. Robb, J. R. Cheeseman, G. Scalmani, V. Barone, B. Mennucci, 
 G. A. Petersson, H. Nakatsuji, M. Caricato, X. Li, H. P. Hratchian, 
 A. F. Izmaylov, J. Bloino, G. Zheng, J. L. Sonnenberg, M. Hada, 
 M. Ehara, K. Toyota, R. Fukuda, J. Hasegawa, M. Ishida, T. Nakajima, 
 Y. Honda, O. Kitao, H. Nakai, T. Vreven, J. A. Montgomery, Jr., 
 J. E. Peralta, F. Ogliaro, M. Bearpark, J. J. Heyd, E. Brothers, 
 K. N. Kudin, V. N. Staroverov, R. Kobayashi, J. Normand, 
 K. Raghavachari, A. Rendell, J. C. Burant, S. S. Iyengar, J. Tomasi, 
 M. Cossi, N. Rega, J. M. Millam, M. Klene, J. E. Knox, J. B. Cross, 
 V. Bakken, C. Adamo, J. Jaramillo, R. Gomperts, R. E. Stratmann, 
 O. Yazyev, A. J. Austin, R. Cammi, C. Pomelli, J. W. Ochterski, 
 R. L. Martin, K. Morokuma, V. G. Zakrzewski, G. A. Voth, 
 P. Salvador, J. J. Dannenberg, S. Dapprich, A. D. Daniels, 
 O. Farkas, J. B. Foresman, J. V. Ortiz, J. Cioslowski, 
 and D. J. Fox, Gaussian, Inc., Wallingford CT, 2009.
 
 ******************************************
 Gaussian 09:  EM64L-G09RevA.01  8-May-2009
                22-Mar-2018 
 ******************************************
 %nprocshared=2
 Will use up to    2 processors via shared memory.
 %mem=1GB
 -------------------------------------------------------------
 #b3lyp/6-31+g* scf=tight nosymm punch=mo iop(3/33=1) pop=full
 -------------------------------------------------------------
 1/38=1/1;
 2/12=2,15=1,17=6,18=5,40=1/2;
 3/5=1,6=6,7=11,11=2,16=1,25=1,30=1,33=1,74=-5/1,2,3;
 4//1;
 5/5=2,32=2,38=5/2;
 6/7=3,28=1/1;
 99/5=1,9=1,10=32/99;
 -------
 9_11_07
 -------
 Symbolic Z-matrix:
 Charge =  0 Multiplicity = 1
 H                    -1.24262  -0.7161    4.39912 
 C                     0.67275   0.        0. 
 H                     1.24262   0.93481   0. 
 H                     1.24262  -0.7161    4.39912 
 H                    -1.24262   0.93481   0. 
 C                     0.67275   0.        5. 
 C                    -0.67275   0.        0. 
 H                    -1.24262  -0.93481   0. 
 C                    -0.67275   0.        5. 
 H                     1.24262  -0.93481   0. 
 H                     1.24262   0.7161    5.60088 
 H                    -1.24262   0.7161    5.60088 
 
                          Input orientation:                          
 ---------------------------------------------------------------------
 Center     Atomic      Atomic             Coordinates (Angstroms)
 Number     Number       Type             X           Y           Z
 ---------------------------------------------------------------------
      1          1           0       -1.242623   -0.716103    4.399118
      2          6           0        0.672749    0.000000    0.000000
      3          1           0        1.242623    0.934806    0.000000
      4          1           0        1.242623   -0.716103    4.399118
      5          1           0       -1.242623    0.934806    0.000000
      6          6           0        0.672749    0.000000    5.000000
      7          6           0       -0.672749    0.000000    0.000000
      8          1           0       -1.242623   -0.934806    0.000000
      9          6           0       -0.672749    0.000000    5.000000
     10          1           0        1.242623   -0.934806    0.000000
     11          1           0        1.242623    0.716103    5.600882
     12          1           0       -1.242623    0.716103    5.600882
 ---------------------------------------------------------------------
                    Distance matrix (angstroms):
                    1          2          3          4          5
     1  H    0.000000
     2  C    4.851154   0.000000
     3  H    5.315467   1.094814   0.000000
     4  H    2.485246   4.493306   4.698696   0.000000
     5  H    4.698696   2.131317   2.485246   5.315467   0.000000
     6  C    2.131317   5.000000   5.118459   1.094815   5.435302
     7  C    4.493306   1.345498   2.131317   4.851154   1.094814
     8  H    4.404551   2.131317   3.109967   5.057323   1.869612
     9  C    1.094815   5.177873   5.435302   2.131317   5.118459
    10  H    5.057323   1.094814   1.869612   4.404551   3.109967
    11  H    3.109968   5.675160   5.605150   1.869612   6.131407
    12  H    1.869612   5.962494   6.131407   3.109968   5.605150
                    6          7          8          9         10
     6  C    0.000000
     7  C    5.177873   0.000000
     8  H    5.435302   1.094814   0.000000
     9  C    1.345498   5.000000   5.118459   0.000000
    10  H    5.118459   2.131317   2.485246   5.435302   0.000000
    11  H    1.094815   5.962494   6.346009   2.131317   5.839125
    12  H    2.131317   5.675160   5.839125   1.094815   6.346009
                   11         12
    11  H    0.000000
    12  H    2.485246   0.000000
 Symmetry turned off by external request.
 Stoichiometry    C4H8
 Framework group  CS[X(C4H8)]
 Deg. of freedom    15
 Full point group                 CS      NOp   2
 Rotational constants (GHZ):     12.7122385      1.4138973      1.3091723
 Standard basis: 6-31+G(d) (6D, 7F)
                         Coordinates in L301:                         
 ---------------------------------------------------------------------
 Center     Atomic      Atomic             Coordinates (Angstroms)
 Number     Number       Type             X           Y           Z
 ---------------------------------------------------------------------
      1          1           0       -1.242623   -0.716103    4.399118
      2          6           0        0.672749    0.000000    0.000000
      3          1           0        1.242623    0.934806    0.000000
      4          1           0        1.242623   -0.716103    4.399118
      5          1           0       -1.242623    0.934806    0.000000
      6          6           0        0.672749    0.000000    5.000000
      7          6           0       -0.672749    0.000000    0.000000
      8          1           0       -1.242623   -0.934806    0.000000
      9          6           0       -0.672749    0.000000    5.000000
     10          1           0        1.242623   -0.934806    0.000000
     11          1           0        1.242623    0.716103    5.600882
     12          1           0       -1.242623    0.716103    5.600882
 ---------------------------------------------------------------------
 FixB: optimizing general contractions.
 Ernie: Thresh=  0.10000D-02 Tol=  0.10000D-05 Strict=F.
 IA=     1 NL=   2 NS=   1.
 IA=     1 L=0 SC=0 ISt=    0 NBk=    0 NP=    0 IndPr=    0.
 IA=     2 NL=   1 NS=   0.
 IA=     2 L=0 SC=0 ISt=    0 NBk=    0 NP=    0 IndPr=    0.
 IA=     2 NL=   3 NS=   2.
 IA=     2 L=1 SC=0 ISt=    0 NBk=    0 NP=    0 IndPr=    0.
 IA=     2 NL=   1 NS=   1.
 IA=     2 L=2 SC=2 ISt=    0 NBk=    0 NP=    0 IndPr=    0.
 IA=     3 NL=   2 NS=   1.
 IA=     3 L=0 SC=0 ISt=    0 NBk=    0 NP=    0 IndPr=    0.
 IA=     4 NL=   2 NS=   1.
 IA=     4 L=0 SC=0 ISt=    0 NBk=    0 NP=    0 IndPr=    0.
 IA=     5 NL=   2 NS=   1.
 IA=     5 L=0 SC=0 ISt=    0 NBk=    0 NP=    0 IndPr=    0.
 IA=     6 NL=   1 NS=   0.
 IA=     6 L=0 SC=0 ISt=    0 NBk=    0 NP=    0 IndPr=    0.
 IA=     6 NL=   3 NS=   2.
 IA=     6 L=1 SC=0 ISt=    0 NBk=    0 NP=    0 IndPr=    0.
 IA=     6 NL=   1 NS=   1.
 IA=     6 L=2 SC=2 ISt=    0 NBk=    0 NP=    0 IndPr=    0.
 IA=     7 NL=   1 NS=   0.
 IA=     7 L=0 SC=0 ISt=    0 NBk=    0 NP=    0 IndPr=    0.
 IA=     7 NL=   3 NS=   2.
 IA=     7 L=1 SC=0 ISt=    0 NBk=    0 NP=    0 IndPr=    0.
 IA=     7 NL=   1 NS=   1.
 IA=     7 L=2 SC=2 ISt=    0 NBk=    0 NP=    0 IndPr=    0.
 IA=     8 NL=   2 NS=   1.
 IA=     8 L=0 SC=0 ISt=    0 NBk=    0 NP=    0 IndPr=    0.
 IA=     9 NL=   1 NS=   0.
 IA=     9 L=0 SC=0 ISt=    0 NBk=    0 NP=    0 IndPr=    0.
 IA=     9 NL=   3 NS=   2.
 IA=     9 L=1 SC=0 ISt=    0 NBk=    0 NP=    0 IndPr=    0.
 IA=     9 NL=   1 NS=   1.
 IA=     9 L=2 SC=2 ISt=    0 NBk=    0 NP=    0 IndPr=    0.
 IA=    10 NL=   2 NS=   1.
 IA=    10 L=0 SC=0 ISt=    0 NBk=    0 NP=    0 IndPr=    0.
 IA=    11 NL=   2 NS=   1.
 IA=    11 L=0 SC=0 ISt=    0 NBk=    0 NP=    0 IndPr=    0.
 IA=    12 NL=   2 NS=   1.
 IA=    12 L=0 SC=0 ISt=    0 NBk=    0 NP=    0 IndPr=    0.
 LdAtmC:  AtmChg=     1.000000     6.000000     1.000000     1.000000     1.000000
 LdAtmC:  AtmChg=     6.000000     6.000000     1.000000     6.000000     1.000000
 LdAtmC:  AtmChg=     1.000000     1.000000
 AtZEff=     -1.0000000     -3.6000000     -1.0000000     -1.0000000     -1.0000000
 AtZEff=     -3.6000000     -3.6000000     -1.0000000     -3.6000000     -1.0000000
 AtZEff=     -1.0000000     -1.0000000
 Integral buffers will be    131072 words long.
 Raffenetti 2 integral format.
 Two-electron integral symmetry is turned off.
    92 basis functions,   160 primitive gaussians,    92 cartesian basis functions
    16 alpha electrons       16 beta electrons
       nuclear repulsion energy        92.3861716681 Hartrees.
 NAtoms=   12 NActive=   12 NUniq=   12 SFac= 7.50D-01 NAtFMM=   80 NAOKFM=F Big=F
 NPDir=0 NMtPBC=     1 NCelOv=     1 NCel=       1 NClECP=     1 NCelD=      1
         NCelK=      1 NCelE2=     1 NClLst=     1 CellRange=     0.0.
 One-electron integrals computed using PRISM.
 Entering OneElI...
 Calculate overlap and kinetic energy integrals
    NBasis =  92  MinDer = 0  MaxDer = 0
 Requested accuracy = 0.1000D-12
 PrsmSu:  NPrtUS=   2 ThrOK=T IAlg=1
 PRISM was handed    67062149 working-precision words and   640 shell-pairs
 PRISM was handed    67062149 working-precision words and   640 shell-pairs
 IPart=  0 NShTot=         320 NBatch=          30 AvBLen=        10.7
 IPart=  1 NShTot=         320 NBatch=          30 AvBLen=        10.7
 *** Overlap *** 
                1             2             3             4             5 
      1  0.100000D+01
      2  0.658292D+00  0.100000D+01
      3  0.000000D+00  0.000000D+00  0.100000D+01
      4  0.000000D+00  0.250645D-04  0.219059D+00  0.100000D+01
      5  0.000000D+00 -0.205126D-04  0.000000D+00  0.000000D+00  0.100000D+01
      6  0.000000D+00 -0.766909D-05  0.000000D+00  0.000000D+00  0.000000D+00
      7  0.000000D+00  0.471123D-04  0.000000D+00  0.000000D+00  0.000000D+00
      8  0.809526D-05  0.977976D-03  0.184261D+00  0.812273D+00  0.000000D+00
      9 -0.191026D-04 -0.142121D-02  0.000000D+00  0.000000D+00  0.569754D+00
     10 -0.714190D-05 -0.531349D-03  0.000000D+00  0.000000D+00  0.000000D+00
     11  0.438737D-04  0.326415D-02  0.000000D+00  0.000000D+00  0.000000D+00
     12  0.967908D-02  0.410450D-01  0.697718D-01  0.402091D+00  0.000000D+00
     13 -0.137834D-01 -0.489029D-01  0.000000D+00  0.000000D+00  0.164679D+00
     14 -0.515323D-02 -0.182834D-01  0.000000D+00  0.000000D+00  0.000000D+00
     15  0.316570D-01  0.112318D+00  0.000000D+00  0.000000D+00  0.000000D+00
     16  0.000000D+00  0.133949D-04  0.791027D-01  0.710235D+00  0.000000D+00
     17  0.000000D+00  0.861471D-05  0.791027D-01  0.710235D+00  0.000000D+00
     18  0.000000D+00  0.371511D-04  0.791027D-01  0.710235D+00  0.000000D+00
     19  0.000000D+00  0.359849D-05  0.000000D+00  0.000000D+00  0.000000D+00
     20  0.000000D+00 -0.221060D-04  0.000000D+00  0.000000D+00  0.000000D+00
     21  0.000000D+00 -0.826481D-05  0.000000D+00  0.000000D+00  0.000000D+00
     22  0.000000D+00  0.133867D-05  0.320525D-01  0.270664D+00  0.190665D+00
     23  0.133867D-05  0.292729D-03  0.916644D-01  0.473962D+00  0.138279D+00
     24  0.571644D-03  0.366357D-01  0.000000D+00  0.000000D+00  0.000000D+00
     25  0.366357D-01  0.168873D+00  0.240930D-05  0.110306D-03  0.271296D-04
     26  0.000000D+00  0.231214D-04  0.430533D-04  0.789566D-02 -0.152645D-01
     27  0.231214D-04  0.173343D-02  0.142782D-01  0.109874D+00 -0.102096D+00
     28  0.430532D-04  0.142782D-01  0.000000D+00  0.000000D+00  0.000000D+00
     29  0.789566D-02  0.109874D+00  0.000000D+00  0.000000D+00  0.000000D+00
     30 -0.152645D-01 -0.102096D+00  0.000000D+00  0.000000D+00  0.000000D+00
     31 -0.570697D-02 -0.381710D-01  0.000000D+00  0.000000D+00  0.000000D+00
     32 -0.478872D-02 -0.320293D-01  0.000000D+00  0.000000D+00  0.000000D+00
     33  0.740737D-01  0.262382D+00  0.000000D+00  0.902429D-05  0.000000D+00
     34 -0.176933D+00 -0.381297D+00  0.000000D+00  0.000000D+00  0.510483D-05
     35 -0.661504D-01 -0.142556D+00  0.000000D+00  0.000000D+00  0.000000D+00
     36 -0.555068D-01 -0.119619D+00  0.000000D+00 -0.533810D-04  0.000000D+00
     37  0.158045D+00  0.424412D+00  0.145172D-02  0.109510D-01  0.000000D+00
     38 -0.225200D+00 -0.505665D+00  0.000000D+00  0.000000D+00  0.433551D-02
     39 -0.841958D-01 -0.189054D+00  0.000000D+00  0.000000D+00  0.000000D+00
     40 -0.706487D-01 -0.158635D+00 -0.568561D-02 -0.399288D-01  0.000000D+00
     41  0.137730D-01  0.120267D+00  0.000000D+00  0.000000D+00  0.000000D+00
     42  0.331699D-02  0.773478D-01  0.000000D+00  0.000000D+00  0.000000D+00
     43  0.281423D-02  0.752841D-01  0.000000D+00  0.000000D+00  0.000000D+00
     44  0.787115D-02  0.323093D-01  0.000000D+00  0.000000D+00  0.000000D+00
     45  0.660468D-02  0.271107D-01  0.000000D+00  0.000000D+00  0.000000D+00
     46  0.246930D-02  0.101359D-01  0.000000D+00  0.000000D+00  0.000000D+00
     47  0.000000D+00  0.240930D-05  0.481399D-05  0.194904D-01 -0.426713D-01
     48  0.000000D+00  0.110306D-03  0.194904D-01  0.203366D+00 -0.282219D+00
     49  0.000000D+00 -0.271296D-04  0.426713D-01  0.282219D+00 -0.333594D+00
     50  0.000000D+00 -0.340911D-04  0.000000D+00  0.000000D+00  0.000000D+00
     51  0.000000D+00  0.209426D-03  0.000000D+00  0.000000D+00  0.000000D+00
     52  0.400794D-04  0.261787D-02  0.643636D-01  0.359351D+00 -0.253511D+00
     53 -0.281665D-04 -0.113189D-02  0.129620D+00  0.562375D+00 -0.170740D+00
     54 -0.353940D-04 -0.142233D-02  0.000000D+00  0.000000D+00  0.000000D+00
     55  0.217430D-03  0.873754D-02  0.000000D+00  0.000000D+00  0.000000D+00
     56  0.158253D-01  0.619290D-01  0.527094D-01  0.309785D+00 -0.673317D-01
     57 -0.670572D-02 -0.219530D-01  0.555561D-01  0.303665D+00  0.598522D-01
     58 -0.842640D-02 -0.275862D-01  0.000000D+00  0.000000D+00  0.000000D+00
     59  0.517645D-01  0.169466D+00  0.000000D+00  0.000000D+00  0.000000D+00
     60  0.000000D+00  0.413718D-04  0.526767D-01  0.334402D+00 -0.413876D+00
     61  0.000000D+00  0.427864D-04  0.113280D-02  0.928256D-01 -0.142160D+00
     62  0.000000D+00  0.184517D-03  0.113280D-02  0.928256D-01 -0.142160D+00
     63  0.000000D+00  0.531755D-05  0.000000D+00  0.000000D+00  0.000000D+00
     64  0.000000D+00 -0.326664D-04  0.000000D+00  0.000000D+00  0.000000D+00
     65  0.000000D+00 -0.410486D-04  0.000000D+00  0.000000D+00  0.000000D+00
     66  0.000000D+00  0.796294D-04  0.430533D-04  0.789566D-02 -0.152645D-01
     67  0.796294D-04  0.374785D-02  0.142782D-01  0.109874D+00 -0.102096D+00
     68  0.320525D-01  0.916644D-01  0.000000D+00  0.000000D+00  0.000000D+00
     69  0.270664D+00  0.473962D+00  0.000000D+00  0.000000D+00  0.000000D+00
     70 -0.190665D+00 -0.138279D+00  0.000000D+00  0.000000D+00  0.000000D+00
     71 -0.239590D+00 -0.173762D+00  0.000000D+00  0.000000D+00  0.000000D+00
     72 -0.201040D+00 -0.145804D+00  0.000000D+00  0.000000D+00  0.000000D+00
     73  0.375116D+00  0.702351D+00  0.000000D+00  0.392978D-05 -0.231359D-05
     74 -0.267879D+00 -0.303675D+00  0.000000D+00  0.625712D-05 -0.148259D-05
     75 -0.336616D+00 -0.381598D+00  0.000000D+00  0.000000D+00  0.000000D+00
     76 -0.282455D+00 -0.320198D+00  0.000000D+00 -0.232521D-04  0.137417D-04
     77  0.258482D+00  0.640357D+00  0.109674D-02  0.843480D-02 -0.177308D-02
     78 -0.109596D+00 -0.226998D+00  0.115586D-02  0.827654D-02  0.157774D-02
     79 -0.137718D+00 -0.285246D+00  0.000000D+00  0.000000D+00  0.000000D+00
     80 -0.115559D+00 -0.239350D+00 -0.429530D-02 -0.307564D-01  0.651916D-02
     81  0.207129D+00  0.371459D+00  0.000000D+00  0.000000D+00  0.000000D+00
     82  0.259885D+00  0.384161D+00  0.000000D+00  0.000000D+00  0.000000D+00
     83  0.217314D+00  0.373911D+00  0.000000D+00  0.000000D+00  0.000000D+00
     84  0.198296D+00  0.477440D-01  0.000000D+00  0.000000D+00  0.000000D+00
     85  0.166390D+00  0.400620D-01  0.000000D+00  0.000000D+00  0.000000D+00
     86  0.209086D+00  0.503418D-01  0.000000D+00  0.000000D+00  0.000000D+00
     87  0.000000D+00  0.460137D-05  0.320525D-01  0.270664D+00  0.190665D+00
     88  0.460137D-05  0.632909D-03  0.916644D-01  0.473962D+00  0.138279D+00
     89  0.104764D-04  0.720594D-02  0.000000D+00  0.000000D+00  0.000000D+00
     90  0.720594D-02  0.617177D-01  0.000000D+00  0.000000D+00  0.000000D+00
     91  0.125798D-01  0.128011D+00  0.000000D+00  0.000000D+00  0.000000D+00
     92  0.128011D+00  0.365469D+00  0.000000D+00  0.000000D+00  0.000000D+00
                6             7             8             9            10 
      6  0.100000D+01
      7  0.000000D+00  0.100000D+01
      8  0.000000D+00  0.000000D+00  0.100000D+01
      9  0.000000D+00  0.000000D+00  0.000000D+00  0.100000D+01
     10  0.569754D+00  0.000000D+00  0.000000D+00  0.000000D+00  0.100000D+01
     11  0.000000D+00  0.569754D+00  0.000000D+00  0.000000D+00  0.000000D+00
     12  0.000000D+00  0.000000D+00  0.727666D+00  0.000000D+00  0.000000D+00
     13  0.000000D+00  0.000000D+00  0.000000D+00  0.588690D+00  0.000000D+00
     14  0.164679D+00  0.000000D+00  0.000000D+00  0.000000D+00  0.588690D+00
     15  0.000000D+00  0.164679D+00  0.000000D+00  0.000000D+00  0.000000D+00
     16  0.000000D+00  0.000000D+00  0.629936D+00  0.000000D+00  0.000000D+00
     17  0.000000D+00  0.000000D+00  0.629936D+00  0.000000D+00  0.000000D+00
     18  0.000000D+00  0.000000D+00  0.629936D+00  0.000000D+00  0.000000D+00
     19  0.000000D+00  0.000000D+00  0.000000D+00  0.000000D+00  0.000000D+00
     20  0.000000D+00  0.000000D+00  0.000000D+00  0.000000D+00  0.000000D+00
     21  0.000000D+00  0.000000D+00  0.000000D+00  0.000000D+00  0.000000D+00
     22  0.312763D+00  0.000000D+00  0.375116D+00  0.267879D+00  0.439422D+00
     23  0.226830D+00  0.000000D+00  0.702351D+00  0.303675D+00  0.498140D+00
     24  0.000000D+00  0.000000D+00  0.400794D-04  0.281665D-04 -0.353940D-04
     25 -0.340911D-04  0.209426D-03  0.261787D-02  0.113189D-02 -0.142233D-02
     26  0.744992D-02  0.000000D+00  0.740737D-01 -0.176934D+00  0.863532D-01
     27  0.498287D-01  0.000000D+00  0.262382D+00 -0.381297D+00  0.186094D+00
     28  0.000000D+00  0.000000D+00  0.000000D+00  0.000000D+00  0.000000D+00
     29  0.000000D+00  0.000000D+00  0.902429D-05  0.000000D+00  0.000000D+00
     30  0.000000D+00  0.000000D+00  0.000000D+00  0.510483D-05  0.000000D+00
     31  0.000000D+00  0.000000D+00  0.000000D+00  0.000000D+00  0.510483D-05
     32  0.000000D+00  0.000000D+00 -0.198119D-04  0.000000D+00  0.000000D+00
     33  0.000000D+00  0.198119D-04  0.536132D-03  0.000000D+00  0.000000D+00
     34  0.000000D+00  0.000000D+00  0.000000D+00  0.536132D-03  0.000000D+00
     35  0.510483D-05  0.000000D+00  0.000000D+00  0.000000D+00  0.536132D-03
     36  0.000000D+00 -0.112620D-03 -0.208074D-02  0.000000D+00  0.000000D+00
     37  0.000000D+00  0.857327D-02  0.326373D-01  0.000000D+00  0.000000D+00
     38  0.000000D+00  0.000000D+00  0.000000D+00  0.264040D-01  0.000000D+00
     39  0.433551D-02  0.000000D+00  0.000000D+00  0.000000D+00  0.264040D-01
     40  0.000000D+00 -0.271881D-01 -0.102474D+00  0.000000D+00  0.000000D+00
     41  0.000000D+00  0.000000D+00  0.249530D-05  0.000000D+00  0.000000D+00
     42  0.000000D+00  0.000000D+00  0.249530D-05  0.000000D+00  0.000000D+00
     43  0.000000D+00  0.000000D+00  0.155871D-04  0.000000D+00  0.000000D+00
     44  0.000000D+00  0.000000D+00  0.000000D+00  0.000000D+00  0.000000D+00
     45  0.000000D+00  0.000000D+00  0.000000D+00 -0.584271D-05  0.000000D+00
     46  0.000000D+00  0.000000D+00  0.000000D+00  0.000000D+00 -0.584271D-05
     47  0.000000D+00  0.000000D+00  0.643636D-01 -0.129620D+00  0.000000D+00
     48  0.000000D+00  0.000000D+00  0.359351D+00 -0.562375D+00  0.000000D+00
     49  0.000000D+00  0.000000D+00  0.253511D+00 -0.170740D+00  0.000000D+00
     50  0.115814D+00  0.000000D+00  0.000000D+00  0.000000D+00  0.242739D+00
     51  0.000000D+00  0.115814D+00  0.000000D+00  0.000000D+00  0.000000D+00
     52  0.000000D+00  0.000000D+00  0.579631D+00 -0.605354D+00  0.000000D+00
     53  0.000000D+00  0.000000D+00  0.605354D+00 -0.525884D-01  0.000000D+00
     54  0.242739D+00  0.000000D+00  0.000000D+00  0.000000D+00  0.579631D+00
     55  0.000000D+00  0.242739D+00  0.000000D+00  0.000000D+00  0.000000D+00
     56  0.000000D+00  0.000000D+00  0.581168D+00 -0.250193D+00  0.000000D+00
     57  0.000000D+00  0.000000D+00  0.491037D+00  0.258780D+00  0.000000D+00
     58  0.126532D+00  0.000000D+00  0.000000D+00  0.000000D+00  0.470171D+00
     59  0.000000D+00  0.126532D+00  0.000000D+00  0.000000D+00  0.000000D+00
     60  0.000000D+00  0.000000D+00  0.353148D+00 -0.422973D+00  0.000000D+00
     61  0.000000D+00  0.000000D+00  0.255918D+00 -0.441451D+00  0.000000D+00
     62  0.000000D+00  0.000000D+00  0.255918D+00 -0.441451D+00  0.000000D+00
     63  0.183392D+00  0.000000D+00  0.000000D+00  0.000000D+00  0.161252D+00
     64  0.000000D+00  0.183392D+00  0.000000D+00  0.000000D+00  0.000000D+00
     65  0.000000D+00  0.000000D+00  0.000000D+00  0.000000D+00  0.000000D+00
     66 -0.744992D-02  0.000000D+00  0.740737D-01 -0.176934D+00 -0.863532D-01
     67 -0.498287D-01  0.000000D+00  0.262382D+00 -0.381297D+00 -0.186094D+00
     68  0.000000D+00  0.000000D+00  0.000000D+00  0.000000D+00  0.000000D+00
     69  0.000000D+00  0.000000D+00  0.392978D-05 -0.625712D-05  0.000000D+00
     70  0.000000D+00  0.000000D+00  0.231359D-05 -0.148259D-05  0.000000D+00
     71  0.000000D+00  0.000000D+00  0.000000D+00  0.000000D+00  0.221528D-05
     72  0.000000D+00  0.000000D+00 -0.859754D-05  0.137417D-04  0.000000D+00
     73  0.000000D+00  0.859754D-05  0.310759D-03 -0.324550D-03  0.000000D+00
     74  0.000000D+00  0.137417D-04  0.324550D-03 -0.281943D-04  0.000000D+00
     75  0.221528D-05  0.000000D+00  0.000000D+00  0.000000D+00  0.310759D-03
     76  0.000000D+00 -0.488501D-04 -0.120606D-02  0.125958D-02  0.000000D+00
     77  0.000000D+00  0.658894D-02  0.260666D-01 -0.112217D-01  0.000000D+00
     78  0.000000D+00  0.651916D-02  0.220240D-01  0.116068D-01  0.000000D+00
     79  0.333204D-02  0.000000D+00  0.000000D+00  0.000000D+00  0.210882D-01
     80  0.000000D+00 -0.208938D-01 -0.818434D-01  0.352336D-01  0.000000D+00
     81  0.000000D+00  0.000000D+00  0.139889D-05 -0.167548D-05  0.000000D+00
     82  0.000000D+00  0.000000D+00  0.101374D-05 -0.174867D-05  0.000000D+00
     83  0.000000D+00  0.000000D+00  0.633240D-05 -0.109232D-04  0.000000D+00
     84  0.000000D+00  0.000000D+00  0.000000D+00  0.000000D+00  0.000000D+00
     85  0.000000D+00  0.000000D+00 -0.247900D-05  0.190255D-05  0.000000D+00
     86  0.000000D+00  0.000000D+00  0.000000D+00  0.000000D+00 -0.237366D-05
     87 -0.312763D+00  0.000000D+00  0.375116D+00  0.267879D+00 -0.439422D+00
     88 -0.226830D+00  0.000000D+00  0.702351D+00  0.303675D+00 -0.498140D+00
     89  0.000000D+00  0.000000D+00  0.000000D+00  0.000000D+00  0.000000D+00
     90  0.000000D+00  0.125943D-05  0.760542D-04  0.328835D-04  0.413214D-04
     91  0.000000D+00  0.000000D+00  0.000000D+00  0.000000D+00  0.000000D+00
     92  0.000000D+00  0.000000D+00  0.284121D-04 -0.412888D-04  0.154367D-04
               11            12            13            14            15 
     11  0.100000D+01
     12  0.000000D+00  0.100000D+01
     13  0.000000D+00  0.000000D+00  0.100000D+01
     14  0.000000D+00  0.000000D+00  0.000000D+00  0.100000D+01
     15  0.588690D+00  0.000000D+00  0.000000D+00  0.000000D+00  0.100000D+01
     16  0.000000D+00  0.323540D+00  0.000000D+00  0.000000D+00  0.000000D+00
     17  0.000000D+00  0.323540D+00  0.000000D+00  0.000000D+00  0.000000D+00
     18  0.000000D+00  0.323540D+00  0.000000D+00  0.000000D+00  0.000000D+00
     19  0.000000D+00  0.000000D+00  0.000000D+00  0.000000D+00  0.000000D+00
     20  0.000000D+00  0.000000D+00  0.000000D+00  0.000000D+00  0.000000D+00
     21  0.000000D+00  0.000000D+00  0.000000D+00  0.000000D+00  0.000000D+00
     22  0.000000D+00  0.258482D+00  0.109596D+00  0.179778D+00  0.000000D+00
     23  0.000000D+00  0.640357D+00  0.226998D+00  0.372362D+00  0.000000D+00
     24  0.217430D-03  0.158253D-01  0.670572D-02 -0.842640D-02  0.517645D-01
     25  0.873754D-02  0.619290D-01  0.219530D-01 -0.275862D-01  0.169466D+00
     26  0.000000D+00  0.158045D+00 -0.225200D+00  0.109910D+00  0.000000D+00
     27  0.000000D+00  0.424412D+00 -0.505665D+00  0.246792D+00  0.000000D+00
     28  0.000000D+00  0.145172D-02  0.000000D+00  0.000000D+00  0.568561D-02
     29  0.533810D-04  0.109510D-01  0.000000D+00  0.000000D+00  0.399288D-01
     30  0.000000D+00  0.000000D+00  0.433551D-02  0.000000D+00  0.000000D+00
     31  0.000000D+00  0.000000D+00  0.000000D+00  0.433551D-02  0.000000D+00
     32 -0.112620D-03 -0.857327D-02  0.000000D+00  0.000000D+00 -0.271881D-01
     33  0.208074D-02  0.326373D-01  0.000000D+00  0.000000D+00  0.102474D+00
     34  0.000000D+00  0.000000D+00  0.264040D-01  0.000000D+00  0.000000D+00
     35  0.000000D+00  0.000000D+00  0.000000D+00  0.264040D-01  0.000000D+00
     36 -0.753923D-02 -0.522126D-01  0.000000D+00  0.000000D+00 -0.137532D+00
     37  0.522126D-01  0.141542D+00  0.000000D+00  0.000000D+00  0.279893D+00
     38  0.000000D+00  0.000000D+00  0.141542D+00  0.000000D+00  0.000000D+00
     39  0.000000D+00  0.000000D+00  0.000000D+00  0.141542D+00  0.000000D+00
     40 -0.137532D+00 -0.279893D+00  0.000000D+00  0.000000D+00 -0.411932D+00
     41  0.159953D-04  0.794057D-02  0.000000D+00  0.000000D+00  0.297741D-01
     42  0.159953D-04  0.794057D-02  0.000000D+00  0.000000D+00  0.297741D-01
     43  0.931692D-04  0.111641D-01  0.000000D+00  0.000000D+00  0.386007D-01
     44  0.000000D+00  0.000000D+00  0.000000D+00  0.000000D+00  0.000000D+00
     45  0.000000D+00  0.000000D+00 -0.282347D-02  0.000000D+00  0.000000D+00
     46  0.000000D+00  0.000000D+00  0.000000D+00 -0.282347D-02  0.000000D+00
     47  0.000000D+00  0.527094D-01 -0.555561D-01  0.000000D+00  0.000000D+00
     48  0.000000D+00  0.309785D+00 -0.303665D+00  0.000000D+00  0.000000D+00
     49  0.000000D+00  0.673317D-01  0.598522D-01  0.000000D+00  0.000000D+00
     50  0.000000D+00  0.000000D+00  0.000000D+00  0.126532D+00  0.000000D+00
     51  0.242739D+00  0.000000D+00  0.000000D+00  0.000000D+00  0.126532D+00
     52  0.000000D+00  0.581168D+00 -0.491037D+00  0.000000D+00  0.000000D+00
     53  0.000000D+00  0.250193D+00  0.258780D+00  0.000000D+00  0.000000D+00
     54  0.000000D+00  0.000000D+00  0.000000D+00  0.470171D+00  0.000000D+00
     55  0.579631D+00  0.000000D+00  0.000000D+00  0.000000D+00  0.470171D+00
     56  0.000000D+00  0.867984D+00 -0.461882D+00  0.000000D+00  0.000000D+00
     57  0.000000D+00  0.461882D+00  0.622202D+00  0.000000D+00  0.000000D+00
     58  0.000000D+00  0.000000D+00  0.000000D+00  0.867984D+00  0.000000D+00
     59  0.470171D+00  0.000000D+00  0.000000D+00  0.000000D+00  0.867984D+00
     60  0.000000D+00  0.254635D+00 -0.229601D+00  0.000000D+00  0.000000D+00
     61  0.000000D+00  0.247363D+00 -0.249594D+00  0.000000D+00  0.000000D+00
     62  0.000000D+00  0.247363D+00 -0.249594D+00  0.000000D+00  0.000000D+00
     63  0.000000D+00  0.000000D+00  0.000000D+00  0.236690D-01  0.000000D+00
     64  0.161252D+00  0.000000D+00  0.000000D+00  0.000000D+00  0.236690D-01
     65  0.000000D+00  0.000000D+00  0.000000D+00  0.000000D+00  0.000000D+00
     66  0.000000D+00  0.158045D+00 -0.225200D+00 -0.109910D+00  0.000000D+00
     67  0.000000D+00  0.424412D+00 -0.505665D+00 -0.246792D+00  0.000000D+00
     68  0.000000D+00  0.109674D-02 -0.115586D-02  0.000000D+00  0.429530D-02
     69  0.232521D-04  0.843480D-02 -0.827654D-02  0.000000D+00  0.307564D-01
     70  0.137417D-04  0.177308D-02  0.157774D-02  0.000000D+00  0.651916D-02
     71  0.000000D+00  0.000000D+00  0.000000D+00  0.333204D-02  0.000000D+00
     72 -0.488501D-04 -0.658894D-02  0.651916D-02  0.000000D+00 -0.208938D-01
     73  0.120606D-02  0.260666D-01 -0.220240D-01  0.000000D+00  0.818434D-01
     74  0.125958D-02  0.112217D-01  0.116068D-01  0.000000D+00  0.352336D-01
     75  0.000000D+00  0.000000D+00  0.000000D+00  0.210882D-01  0.000000D+00
     76 -0.436997D-02 -0.417008D-01  0.352336D-01  0.000000D+00 -0.109843D+00
     77  0.417008D-01  0.122856D+00 -0.653757D-01  0.000000D+00  0.242942D+00
     78  0.352336D-01  0.653757D-01  0.880678D-01  0.000000D+00  0.129277D+00
     79  0.000000D+00  0.000000D+00  0.000000D+00  0.122856D+00  0.000000D+00
     80 -0.109843D+00 -0.242942D+00  0.129277D+00  0.000000D+00 -0.357551D+00
     81  0.896710D-05  0.624945D-02 -0.563504D-02  0.000000D+00  0.234330D-01
     82  0.649823D-05  0.607098D-02 -0.612573D-02  0.000000D+00  0.227638D-01
     83  0.378509D-04  0.853551D-02 -0.861250D-02  0.000000D+00  0.295122D-01
     84  0.000000D+00  0.000000D+00  0.000000D+00  0.580902D-03  0.000000D+00
     85 -0.152520D-04 -0.114871D-02 -0.999621D-03  0.000000D+00 -0.372630D-02
     86  0.000000D+00  0.000000D+00  0.000000D+00 -0.215869D-02  0.000000D+00
     87  0.000000D+00  0.258482D+00  0.109596D+00 -0.179778D+00  0.000000D+00
     88  0.000000D+00  0.640357D+00  0.226998D+00 -0.372362D+00  0.000000D+00
     89  0.000000D+00  0.270450D-02  0.114558D-02  0.143954D-02  0.112591D-01
     90  0.323188D-03  0.141221D-01  0.500611D-02  0.629067D-02  0.492015D-01
     91  0.000000D+00  0.165441D-02 -0.235514D-02  0.880519D-03  0.688683D-02
     92  0.120736D-03  0.935978D-02 -0.111517D-01  0.416930D-02  0.326095D-01
               16            17            18            19            20 
     16  0.100000D+01
     17  0.333333D+00  0.100000D+01
     18  0.333333D+00  0.333333D+00  0.100000D+01
     19  0.000000D+00  0.000000D+00  0.000000D+00  0.100000D+01
     20  0.000000D+00  0.000000D+00  0.000000D+00  0.000000D+00  0.100000D+01
     21  0.000000D+00  0.000000D+00  0.000000D+00  0.000000D+00  0.000000D+00
     22  0.207129D+00  0.361177D+00  0.116021D+00  0.258857D+00  0.000000D+00
     23  0.371459D+00  0.408549D+00  0.349523D+00  0.623253D-01  0.000000D+00
     24  0.000000D+00  0.000000D+00  0.000000D+00  0.000000D+00  0.000000D+00
     25  0.413718D-04  0.427864D-04  0.184517D-03 -0.531755D-05  0.326664D-04
     26  0.137730D-01  0.451326D-02  0.161797D-02 -0.102751D-01  0.000000D+00
     27  0.120267D+00  0.822582D-01  0.703737D-01 -0.421768D-01  0.000000D+00
     28  0.000000D+00  0.000000D+00  0.000000D+00  0.000000D+00  0.000000D+00
     29  0.000000D+00  0.000000D+00  0.000000D+00  0.000000D+00  0.000000D+00
     30  0.000000D+00  0.000000D+00  0.000000D+00  0.000000D+00  0.000000D+00
     31  0.000000D+00  0.000000D+00  0.000000D+00  0.000000D+00  0.000000D+00
     32  0.000000D+00  0.000000D+00  0.000000D+00  0.000000D+00  0.000000D+00
     33  0.249530D-05  0.249530D-05  0.155871D-04  0.000000D+00  0.000000D+00
     34  0.000000D+00  0.000000D+00  0.000000D+00  0.000000D+00  0.584271D-05
     35  0.000000D+00  0.000000D+00  0.000000D+00  0.000000D+00  0.000000D+00
     36 -0.159953D-04 -0.159953D-04 -0.931692D-04  0.000000D+00  0.000000D+00
     37  0.794057D-02  0.794057D-02  0.111641D-01  0.000000D+00  0.000000D+00
     38  0.000000D+00  0.000000D+00  0.000000D+00  0.000000D+00  0.282347D-02
     39  0.000000D+00  0.000000D+00  0.000000D+00  0.000000D+00  0.000000D+00
     40 -0.297741D-01 -0.297741D-01 -0.386007D-01  0.000000D+00  0.000000D+00
     41  0.000000D+00  0.000000D+00  0.000000D+00  0.000000D+00  0.000000D+00
     42  0.000000D+00  0.000000D+00  0.000000D+00  0.000000D+00  0.000000D+00
     43  0.000000D+00  0.000000D+00  0.000000D+00  0.000000D+00  0.000000D+00
     44  0.000000D+00  0.000000D+00  0.000000D+00  0.000000D+00  0.000000D+00
     45  0.000000D+00  0.000000D+00  0.000000D+00  0.000000D+00  0.000000D+00
     46  0.000000D+00  0.000000D+00  0.000000D+00  0.000000D+00  0.000000D+00
     47  0.526767D-01  0.113280D-02  0.113280D-02  0.000000D+00  0.000000D+00
     48  0.334402D+00  0.928256D-01  0.928256D-01  0.000000D+00  0.000000D+00
     49  0.413876D+00  0.142160D+00  0.142160D+00  0.000000D+00  0.000000D+00
     50  0.000000D+00  0.000000D+00  0.000000D+00 -0.183392D+00  0.000000D+00
     51  0.000000D+00  0.000000D+00  0.000000D+00  0.000000D+00 -0.183392D+00
     52  0.353148D+00  0.255918D+00  0.255918D+00  0.000000D+00  0.000000D+00
     53  0.422973D+00  0.441451D+00  0.441451D+00  0.000000D+00  0.000000D+00
     54  0.000000D+00  0.000000D+00  0.000000D+00 -0.161252D+00  0.000000D+00
     55  0.000000D+00  0.000000D+00  0.000000D+00  0.000000D+00 -0.161252D+00
     56  0.254635D+00  0.247363D+00  0.247363D+00  0.000000D+00  0.000000D+00
     57  0.229601D+00  0.249594D+00  0.249594D+00  0.000000D+00  0.000000D+00
     58  0.000000D+00  0.000000D+00  0.000000D+00 -0.236690D-01  0.000000D+00
     59  0.000000D+00  0.000000D+00  0.000000D+00  0.000000D+00 -0.236690D-01
     60  0.487216D+00  0.154963D+00  0.154963D+00  0.000000D+00  0.000000D+00
     61  0.154963D+00  0.753228D-01  0.251076D-01  0.000000D+00  0.000000D+00
     62  0.154963D+00  0.251076D-01  0.753228D-01  0.000000D+00  0.000000D+00
     63  0.000000D+00  0.000000D+00  0.000000D+00 -0.314243D+00  0.000000D+00
     64  0.000000D+00  0.000000D+00  0.000000D+00  0.000000D+00 -0.314243D+00
     65  0.000000D+00  0.000000D+00  0.000000D+00  0.000000D+00  0.000000D+00
     66  0.137730D-01  0.451326D-02  0.161797D-02  0.102751D-01  0.000000D+00
     67  0.120267D+00  0.822582D-01  0.703737D-01  0.421768D-01  0.000000D+00
     68  0.000000D+00  0.000000D+00  0.000000D+00  0.000000D+00  0.000000D+00
     69  0.000000D+00  0.000000D+00  0.000000D+00  0.000000D+00  0.000000D+00
     70  0.000000D+00  0.000000D+00  0.000000D+00  0.000000D+00  0.000000D+00
     71  0.000000D+00  0.000000D+00  0.000000D+00  0.000000D+00  0.000000D+00
     72  0.000000D+00  0.000000D+00  0.000000D+00  0.000000D+00  0.000000D+00
     73  0.139889D-05  0.101374D-05  0.633240D-05  0.000000D+00 -0.247900D-05
     74  0.167548D-05  0.174867D-05  0.109232D-04  0.000000D+00 -0.190255D-05
     75  0.000000D+00  0.000000D+00  0.000000D+00  0.000000D+00  0.000000D+00
     76 -0.896710D-05 -0.649823D-05 -0.378509D-04  0.000000D+00  0.152520D-04
     77  0.624945D-02  0.607098D-02  0.853551D-02  0.000000D+00 -0.114871D-02
     78  0.563504D-02  0.612573D-02  0.861250D-02  0.000000D+00  0.999621D-03
     79  0.000000D+00  0.000000D+00  0.000000D+00 -0.580902D-03  0.000000D+00
     80 -0.234330D-01 -0.227638D-01 -0.295122D-01  0.000000D+00  0.372630D-02
     81  0.000000D+00  0.000000D+00  0.000000D+00  0.000000D+00  0.000000D+00
     82  0.000000D+00  0.000000D+00  0.000000D+00  0.000000D+00  0.000000D+00
     83  0.000000D+00  0.000000D+00  0.000000D+00  0.000000D+00  0.000000D+00
     84  0.000000D+00  0.000000D+00  0.000000D+00  0.000000D+00  0.000000D+00
     85  0.000000D+00  0.000000D+00  0.000000D+00  0.000000D+00  0.000000D+00
     86  0.000000D+00  0.000000D+00  0.000000D+00  0.000000D+00  0.000000D+00
     87  0.207129D+00  0.361177D+00  0.116021D+00 -0.258857D+00  0.000000D+00
     88  0.371459D+00  0.408549D+00  0.349523D+00 -0.623253D-01  0.000000D+00
     89  0.000000D+00  0.000000D+00  0.000000D+00  0.000000D+00  0.000000D+00
     90  0.000000D+00  0.000000D+00  0.000000D+00  0.000000D+00  0.000000D+00
     91  0.000000D+00  0.000000D+00  0.000000D+00  0.000000D+00  0.000000D+00
     92  0.000000D+00  0.000000D+00  0.000000D+00  0.000000D+00  0.000000D+00
               21            22            23            24            25 
     21  0.100000D+01
     22  0.000000D+00  0.100000D+01
     23  0.000000D+00  0.658292D+00  0.100000D+01
     24  0.000000D+00  0.000000D+00  0.231214D-04  0.100000D+01
     25 -0.410486D-04  0.231214D-04  0.173343D-02  0.658292D+00  0.100000D+01
     26  0.000000D+00  0.571644D-03  0.366357D-01  0.000000D+00  0.133867D-05
     27  0.000000D+00  0.366357D-01  0.168873D+00  0.133867D-05  0.292729D-03
     28  0.000000D+00  0.000000D+00  0.000000D+00  0.320525D-01  0.916644D-01
     29  0.000000D+00  0.000000D+00  0.768895D-05  0.270664D+00  0.473962D+00
     30  0.000000D+00  0.000000D+00  0.186077D-05  0.190665D+00  0.138279D+00
     31  0.000000D+00  0.000000D+00  0.305236D-05 -0.239590D+00 -0.173762D+00
     32  0.000000D+00  0.000000D+00 -0.163262D-04 -0.201040D+00 -0.145804D+00
     33  0.000000D+00  0.226477D-05  0.446206D-03  0.375116D+00  0.702351D+00
     34  0.000000D+00  0.158910D-05  0.192926D-03  0.267879D+00  0.303675D+00
     35  0.584271D-05  0.260672D-05  0.316470D-03 -0.336616D+00 -0.381598D+00
     36  0.000000D+00 -0.139426D-04 -0.169271D-02 -0.282455D+00 -0.320198D+00
     37  0.000000D+00  0.654163D-02  0.295731D-01  0.258482D+00  0.640357D+00
     38  0.000000D+00  0.277141D-02  0.104833D-01  0.109596D+00  0.226998D+00
     39  0.282347D-02  0.454614D-02  0.171965D-01 -0.137718D+00 -0.285246D+00
     40  0.000000D+00 -0.243160D-01 -0.919790D-01 -0.115559D+00 -0.239350D+00
     41  0.000000D+00  0.000000D+00  0.232224D-05  0.207129D+00  0.371459D+00
     42  0.000000D+00  0.000000D+00  0.255412D-05  0.259885D+00  0.384161D+00
     43  0.000000D+00  0.000000D+00  0.127421D-04  0.217314D+00  0.373911D+00
     44  0.000000D+00  0.000000D+00  0.000000D+00 -0.198296D+00 -0.477440D-01
     45  0.000000D+00  0.000000D+00 -0.208405D-05 -0.166390D+00 -0.400620D-01
     46  0.000000D+00  0.000000D+00 -0.341863D-05  0.209086D+00  0.503418D-01
     47  0.000000D+00  0.430533D-04  0.142782D-01  0.000000D+00  0.000000D+00
     48  0.000000D+00  0.789566D-02  0.109874D+00  0.000000D+00  0.250645D-04
     49  0.000000D+00  0.152645D-01  0.102096D+00  0.000000D+00  0.205126D-04
     50  0.000000D+00  0.744992D-02  0.498287D-01  0.000000D+00 -0.766909D-05
     51  0.000000D+00  0.000000D+00  0.000000D+00  0.000000D+00  0.471123D-04
     52  0.000000D+00  0.740737D-01  0.262382D+00  0.809526D-05  0.977976D-03
     53  0.000000D+00  0.176934D+00  0.381297D+00  0.191026D-04  0.142121D-02
     54  0.000000D+00  0.863532D-01  0.186094D+00 -0.714190D-05 -0.531349D-03
     55  0.000000D+00  0.000000D+00  0.000000D+00  0.438737D-04  0.326415D-02
     56  0.000000D+00  0.158045D+00  0.424412D+00  0.967908D-02  0.410450D-01
     57  0.000000D+00  0.225200D+00  0.505665D+00  0.137834D-01  0.489029D-01
     58  0.000000D+00  0.109910D+00  0.246792D+00 -0.515323D-02 -0.182834D-01
     59  0.000000D+00  0.000000D+00  0.000000D+00  0.316570D-01  0.112318D+00
     60  0.000000D+00  0.137730D-01  0.120267D+00  0.000000D+00  0.133949D-04
     61  0.000000D+00  0.451326D-02  0.822582D-01  0.000000D+00  0.861471D-05
     62  0.000000D+00  0.161797D-02  0.703737D-01  0.000000D+00  0.371511D-04
     63  0.000000D+00  0.102751D-01  0.421768D-01  0.000000D+00 -0.359849D-05
     64  0.000000D+00  0.000000D+00  0.000000D+00  0.000000D+00  0.221060D-04
     65  0.753228D-01  0.000000D+00  0.000000D+00  0.000000D+00 -0.826481D-05
     66  0.000000D+00  0.104764D-04  0.720595D-02  0.000000D+00  0.460137D-05
     67  0.000000D+00  0.720595D-02  0.617177D-01  0.460137D-05  0.632909D-03
     68  0.000000D+00  0.000000D+00  0.000000D+00  0.430532D-04  0.142782D-01
     69  0.000000D+00  0.000000D+00  0.174431D-05  0.789566D-02  0.109874D+00
     70  0.000000D+00  0.000000D+00  0.141044D-05  0.152645D-01  0.102096D+00
     71  0.000000D+00  0.000000D+00  0.000000D+00 -0.570697D-02 -0.381710D-01
     72  0.000000D+00  0.000000D+00 -0.368190D-05 -0.478872D-02 -0.320293D-01
     73  0.000000D+00  0.000000D+00  0.166693D-03  0.740737D-01  0.262382D+00
     74  0.000000D+00  0.108052D-05  0.242240D-03  0.176933D+00  0.381297D+00
     75  0.237366D-05  0.000000D+00  0.118226D-03 -0.661504D-01 -0.142556D+00
     76  0.000000D+00 -0.282065D-05 -0.632356D-03 -0.555068D-01 -0.119619D+00
     77  0.000000D+00  0.400134D-02  0.196003D-01  0.158045D+00  0.424412D+00
     78  0.000000D+00  0.569708D-02  0.233527D-01  0.225200D+00  0.505665D+00
     79  0.215869D-02  0.278048D-02  0.113974D-01 -0.841958D-01 -0.189054D+00
     80  0.000000D+00 -0.148720D-01 -0.609614D-01 -0.706487D-01 -0.158635D+00
     81  0.000000D+00  0.000000D+00  0.000000D+00  0.137730D-01  0.120267D+00
     82  0.000000D+00  0.000000D+00  0.000000D+00  0.331699D-02  0.773478D-01
     83  0.000000D+00  0.000000D+00  0.256552D-05  0.281423D-02  0.752841D-01
     84  0.000000D+00  0.000000D+00  0.000000D+00 -0.787115D-02 -0.323093D-01
     85  0.000000D+00  0.000000D+00 -0.141032D-05 -0.660468D-02 -0.271107D-01
     86  0.000000D+00  0.000000D+00  0.000000D+00  0.246930D-02  0.101359D-01
     87  0.000000D+00  0.125798D-01  0.128011D+00  0.000000D+00  0.796294D-04
     88  0.000000D+00  0.128011D+00  0.365469D+00  0.796294D-04  0.374785D-02
     89  0.000000D+00  0.000000D+00  0.000000D+00  0.125798D-01  0.128011D+00
     90  0.000000D+00  0.000000D+00  0.117714D-03  0.128011D+00  0.365469D+00
     91  0.000000D+00  0.000000D+00  0.000000D+00  0.104764D-04  0.720594D-02
     92  0.000000D+00  0.000000D+00  0.198786D-04  0.720594D-02  0.617177D-01
               26            27            28            29            30 
     26  0.100000D+01
     27  0.658292D+00  0.100000D+01
     28  0.000000D+00  0.000000D+00  0.100000D+01
     29  0.000000D+00  0.174431D-05  0.219059D+00  0.100000D+01
     30  0.000000D+00 -0.141044D-05  0.000000D+00  0.000000D+00  0.100000D+01
     31  0.000000D+00  0.000000D+00  0.000000D+00  0.000000D+00  0.000000D+00
     32  0.000000D+00 -0.368190D-05  0.000000D+00  0.000000D+00  0.000000D+00
     33  0.000000D+00  0.166693D-03  0.184261D+00  0.812273D+00  0.000000D+00
     34 -0.108052D-05 -0.242240D-03  0.000000D+00  0.000000D+00  0.569754D+00
     35  0.000000D+00  0.118226D-03  0.000000D+00  0.000000D+00  0.000000D+00
     36 -0.282065D-05 -0.632356D-03  0.000000D+00  0.000000D+00  0.000000D+00
     37  0.400134D-02  0.196003D-01  0.697718D-01  0.402091D+00  0.000000D+00
     38 -0.569708D-02 -0.233527D-01  0.000000D+00  0.000000D+00  0.164679D+00
     39  0.278048D-02  0.113974D-01  0.000000D+00  0.000000D+00  0.000000D+00
     40 -0.148720D-01 -0.609614D-01  0.000000D+00  0.000000D+00  0.000000D+00
     41  0.000000D+00  0.000000D+00  0.791027D-01  0.710235D+00  0.000000D+00
     42  0.000000D+00  0.000000D+00  0.791027D-01  0.710235D+00  0.000000D+00
     43  0.000000D+00  0.256552D-05  0.791027D-01  0.710235D+00  0.000000D+00
     44  0.000000D+00  0.000000D+00  0.000000D+00  0.000000D+00  0.000000D+00
     45  0.000000D+00  0.141032D-05  0.000000D+00  0.000000D+00  0.000000D+00
     46  0.000000D+00  0.000000D+00  0.000000D+00  0.000000D+00  0.000000D+00
     47  0.320525D-01  0.916644D-01  0.000000D+00  0.000000D+00  0.000000D+00
     48  0.270664D+00  0.473962D+00  0.000000D+00  0.000000D+00  0.000000D+00
     49 -0.190665D+00 -0.138279D+00  0.000000D+00  0.000000D+00  0.000000D+00
     50  0.312763D+00  0.226830D+00  0.000000D+00  0.000000D+00  0.000000D+00
     51  0.000000D+00  0.000000D+00  0.000000D+00  0.000000D+00  0.000000D+00
     52  0.375116D+00  0.702351D+00  0.000000D+00  0.392978D-05 -0.231359D-05
     53 -0.267879D+00 -0.303675D+00  0.000000D+00  0.625712D-05 -0.148259D-05
     54  0.439422D+00  0.498140D+00  0.000000D+00  0.000000D+00  0.000000D+00
     55  0.000000D+00  0.000000D+00  0.000000D+00  0.232521D-04 -0.137417D-04
     56  0.258482D+00  0.640357D+00  0.109674D-02  0.843480D-02 -0.177308D-02
     57 -0.109596D+00 -0.226998D+00  0.115586D-02  0.827654D-02  0.157774D-02
     58  0.179778D+00  0.372362D+00  0.000000D+00  0.000000D+00  0.000000D+00
     59  0.000000D+00  0.000000D+00  0.429530D-02  0.307564D-01 -0.651916D-02
     60  0.207129D+00  0.371459D+00  0.000000D+00  0.000000D+00  0.000000D+00
     61  0.361177D+00  0.408549D+00  0.000000D+00  0.000000D+00  0.000000D+00
     62  0.116021D+00  0.349523D+00  0.000000D+00  0.000000D+00  0.000000D+00
     63 -0.258857D+00 -0.623253D-01  0.000000D+00  0.000000D+00  0.000000D+00
     64  0.000000D+00  0.000000D+00  0.000000D+00  0.000000D+00  0.000000D+00
     65  0.000000D+00  0.000000D+00  0.000000D+00  0.000000D+00  0.000000D+00
     66  0.125798D-01  0.128011D+00  0.000000D+00  0.000000D+00  0.000000D+00
     67  0.128011D+00  0.365469D+00  0.000000D+00  0.174431D-05 -0.141044D-05
     68  0.000000D+00  0.000000D+00  0.481399D-05  0.194904D-01 -0.426713D-01
     69  0.000000D+00  0.768895D-05  0.194904D-01  0.203366D+00 -0.282219D+00
     70  0.000000D+00 -0.186077D-05  0.426713D-01  0.282219D+00 -0.333594D+00
     71  0.000000D+00  0.305236D-05  0.000000D+00  0.000000D+00  0.000000D+00
     72  0.000000D+00 -0.163262D-04  0.000000D+00  0.000000D+00  0.000000D+00
     73  0.226477D-05  0.446206D-03  0.643636D-01  0.359351D+00 -0.253511D+00
     74 -0.158910D-05 -0.192926D-03  0.129620D+00  0.562375D+00 -0.170740D+00
     75  0.260672D-05  0.316470D-03  0.000000D+00  0.000000D+00  0.000000D+00
     76 -0.139426D-04 -0.169271D-02  0.000000D+00  0.000000D+00  0.000000D+00
     77  0.654163D-02  0.295731D-01  0.527094D-01  0.309785D+00 -0.673317D-01
     78 -0.277141D-02 -0.104833D-01  0.555561D-01  0.303665D+00  0.598522D-01
     79  0.454614D-02  0.171965D-01  0.000000D+00  0.000000D+00  0.000000D+00
     80 -0.243160D-01 -0.919790D-01  0.000000D+00  0.000000D+00  0.000000D+00
     81  0.000000D+00  0.232224D-05  0.526767D-01  0.334402D+00 -0.413876D+00
     82  0.000000D+00  0.255412D-05  0.113280D-02  0.928256D-01 -0.142160D+00
     83  0.000000D+00  0.127421D-04  0.113280D-02  0.928256D-01 -0.142160D+00
     84  0.000000D+00  0.000000D+00  0.000000D+00  0.000000D+00  0.000000D+00
     85  0.000000D+00  0.208405D-05  0.000000D+00  0.000000D+00  0.000000D+00
     86  0.000000D+00 -0.341863D-05  0.000000D+00  0.000000D+00  0.000000D+00
     87  0.104764D-04  0.720595D-02  0.000000D+00  0.000000D+00  0.000000D+00
     88  0.720595D-02  0.617177D-01  0.000000D+00  0.768895D-05  0.186077D-05
     89  0.000000D+00  0.000000D+00  0.320525D-01  0.270664D+00  0.190665D+00
     90  0.000000D+00  0.198786D-04  0.916644D-01  0.473962D+00  0.138279D+00
     91  0.000000D+00  0.000000D+00  0.430532D-04  0.789566D-02 -0.152645D-01
     92  0.000000D+00  0.117714D-03  0.142782D-01  0.109874D+00 -0.102096D+00
               31            32            33            34            35 
     31  0.100000D+01
     32  0.000000D+00  0.100000D+01
     33  0.000000D+00  0.000000D+00  0.100000D+01
     34  0.000000D+00  0.000000D+00  0.000000D+00  0.100000D+01
     35  0.569754D+00  0.000000D+00  0.000000D+00  0.000000D+00  0.100000D+01
     36  0.000000D+00  0.569754D+00  0.000000D+00  0.000000D+00  0.000000D+00
     37  0.000000D+00  0.000000D+00  0.727666D+00  0.000000D+00  0.000000D+00
     38  0.000000D+00  0.000000D+00  0.000000D+00  0.588690D+00  0.000000D+00
     39  0.164679D+00  0.000000D+00  0.000000D+00  0.000000D+00  0.588690D+00
     40  0.000000D+00  0.164679D+00  0.000000D+00  0.000000D+00  0.000000D+00
     41  0.000000D+00  0.000000D+00  0.629936D+00  0.000000D+00  0.000000D+00
     42  0.000000D+00  0.000000D+00  0.629936D+00  0.000000D+00  0.000000D+00
     43  0.000000D+00  0.000000D+00  0.629936D+00  0.000000D+00  0.000000D+00
     44  0.000000D+00  0.000000D+00  0.000000D+00  0.000000D+00  0.000000D+00
     45  0.000000D+00  0.000000D+00  0.000000D+00  0.000000D+00  0.000000D+00
     46  0.000000D+00  0.000000D+00  0.000000D+00  0.000000D+00  0.000000D+00
     47  0.000000D+00  0.000000D+00  0.000000D+00  0.000000D+00  0.000000D+00
     48  0.000000D+00  0.000000D+00  0.392978D-05 -0.625712D-05  0.000000D+00
     49  0.000000D+00  0.000000D+00  0.231359D-05 -0.148259D-05  0.000000D+00
     50  0.000000D+00  0.000000D+00  0.000000D+00  0.000000D+00  0.221528D-05
     51  0.000000D+00  0.000000D+00  0.859754D-05 -0.137417D-04  0.000000D+00
     52  0.000000D+00 -0.859754D-05  0.310759D-03 -0.324550D-03  0.000000D+00
     53  0.000000D+00 -0.137417D-04  0.324550D-03 -0.281943D-04  0.000000D+00
     54  0.221528D-05  0.000000D+00  0.000000D+00  0.000000D+00  0.310759D-03
     55  0.000000D+00 -0.488501D-04  0.120606D-02 -0.125958D-02  0.000000D+00
     56  0.000000D+00 -0.658894D-02  0.260666D-01 -0.112217D-01  0.000000D+00
     57  0.000000D+00 -0.651916D-02  0.220240D-01  0.116068D-01  0.000000D+00
     58  0.333204D-02  0.000000D+00  0.000000D+00  0.000000D+00  0.210882D-01
     59  0.000000D+00 -0.208938D-01  0.818434D-01 -0.352336D-01  0.000000D+00
     60  0.000000D+00  0.000000D+00  0.139889D-05 -0.167548D-05  0.000000D+00
     61  0.000000D+00  0.000000D+00  0.101374D-05 -0.174867D-05  0.000000D+00
     62  0.000000D+00  0.000000D+00  0.633240D-05 -0.109232D-04  0.000000D+00
     63  0.000000D+00  0.000000D+00  0.000000D+00  0.000000D+00  0.000000D+00
     64  0.000000D+00  0.000000D+00  0.247900D-05 -0.190255D-05  0.000000D+00
     65  0.000000D+00  0.000000D+00  0.000000D+00  0.000000D+00  0.237366D-05
     66  0.000000D+00  0.000000D+00  0.000000D+00 -0.108052D-05  0.000000D+00
     67  0.000000D+00 -0.368190D-05  0.166693D-03 -0.242240D-03 -0.118226D-03
     68  0.000000D+00  0.000000D+00  0.643636D-01 -0.129620D+00  0.000000D+00
     69  0.000000D+00  0.000000D+00  0.359351D+00 -0.562375D+00  0.000000D+00
     70  0.000000D+00  0.000000D+00  0.253511D+00 -0.170740D+00  0.000000D+00
     71  0.115814D+00  0.000000D+00  0.000000D+00  0.000000D+00  0.242739D+00
     72  0.000000D+00  0.115814D+00  0.000000D+00  0.000000D+00  0.000000D+00
     73  0.000000D+00  0.000000D+00  0.579631D+00 -0.605354D+00  0.000000D+00
     74  0.000000D+00  0.000000D+00  0.605354D+00 -0.525884D-01  0.000000D+00
     75  0.242739D+00  0.000000D+00  0.000000D+00  0.000000D+00  0.579631D+00
     76  0.000000D+00  0.242739D+00  0.000000D+00  0.000000D+00  0.000000D+00
     77  0.000000D+00  0.000000D+00  0.581168D+00 -0.250193D+00  0.000000D+00
     78  0.000000D+00  0.000000D+00  0.491037D+00  0.258780D+00  0.000000D+00
     79  0.126532D+00  0.000000D+00  0.000000D+00  0.000000D+00  0.470171D+00
     80  0.000000D+00  0.126532D+00  0.000000D+00  0.000000D+00  0.000000D+00
     81  0.000000D+00  0.000000D+00  0.353148D+00 -0.422973D+00  0.000000D+00
     82  0.000000D+00  0.000000D+00  0.255918D+00 -0.441451D+00  0.000000D+00
     83  0.000000D+00  0.000000D+00  0.255918D+00 -0.441451D+00  0.000000D+00
     84  0.183392D+00  0.000000D+00  0.000000D+00  0.000000D+00  0.161252D+00
     85  0.000000D+00  0.183392D+00  0.000000D+00  0.000000D+00  0.000000D+00
     86  0.000000D+00  0.000000D+00  0.000000D+00  0.000000D+00  0.000000D+00
     87  0.000000D+00  0.000000D+00  0.226477D-05  0.158910D-05 -0.260672D-05
     88 -0.305236D-05 -0.163262D-04  0.446206D-03  0.192926D-03 -0.316470D-03
     89  0.239590D+00  0.201040D+00  0.375116D+00  0.267879D+00  0.336616D+00
     90  0.173762D+00  0.145804D+00  0.702351D+00  0.303675D+00  0.381598D+00
     91  0.570697D-02  0.478872D-02  0.740737D-01 -0.176933D+00  0.661504D-01
     92  0.381710D-01  0.320293D-01  0.262382D+00 -0.381297D+00  0.142556D+00
               36            37            38            39            40 
     36  0.100000D+01
     37  0.000000D+00  0.100000D+01
     38  0.000000D+00  0.000000D+00  0.100000D+01
     39  0.000000D+00  0.000000D+00  0.000000D+00  0.100000D+01
     40  0.588690D+00  0.000000D+00  0.000000D+00  0.000000D+00  0.100000D+01
     41  0.000000D+00  0.323540D+00  0.000000D+00  0.000000D+00  0.000000D+00
     42  0.000000D+00  0.323540D+00  0.000000D+00  0.000000D+00  0.000000D+00
     43  0.000000D+00  0.323540D+00  0.000000D+00  0.000000D+00  0.000000D+00
     44  0.000000D+00  0.000000D+00  0.000000D+00  0.000000D+00  0.000000D+00
     45  0.000000D+00  0.000000D+00  0.000000D+00  0.000000D+00  0.000000D+00
     46  0.000000D+00  0.000000D+00  0.000000D+00  0.000000D+00  0.000000D+00
     47  0.000000D+00  0.109674D-02 -0.115586D-02  0.000000D+00 -0.429530D-02
     48 -0.232521D-04  0.843480D-02 -0.827654D-02  0.000000D+00 -0.307564D-01
     49 -0.137417D-04  0.177308D-02  0.157774D-02  0.000000D+00 -0.651916D-02
     50  0.000000D+00  0.000000D+00  0.000000D+00  0.333204D-02  0.000000D+00
     51 -0.488501D-04  0.658894D-02 -0.651916D-02  0.000000D+00 -0.208938D-01
     52 -0.120606D-02  0.260666D-01 -0.220240D-01  0.000000D+00 -0.818434D-01
     53 -0.125958D-02  0.112217D-01  0.116068D-01  0.000000D+00 -0.352336D-01
     54  0.000000D+00  0.000000D+00  0.000000D+00  0.210882D-01  0.000000D+00
     55 -0.436997D-02  0.417008D-01 -0.352336D-01  0.000000D+00 -0.109843D+00
     56 -0.417008D-01  0.122856D+00 -0.653757D-01  0.000000D+00 -0.242942D+00
     57 -0.352336D-01  0.653757D-01  0.880678D-01  0.000000D+00 -0.129277D+00
     58  0.000000D+00  0.000000D+00  0.000000D+00  0.122856D+00  0.000000D+00
     59 -0.109843D+00  0.242942D+00 -0.129277D+00  0.000000D+00 -0.357551D+00
     60 -0.896710D-05  0.624945D-02 -0.563504D-02  0.000000D+00 -0.234330D-01
     61 -0.649823D-05  0.607098D-02 -0.612573D-02  0.000000D+00 -0.227638D-01
     62 -0.378509D-04  0.853551D-02 -0.861250D-02  0.000000D+00 -0.295122D-01
     63  0.000000D+00  0.000000D+00  0.000000D+00  0.580902D-03  0.000000D+00
     64 -0.152520D-04  0.114871D-02  0.999621D-03  0.000000D+00 -0.372630D-02
     65  0.000000D+00  0.000000D+00  0.000000D+00  0.215869D-02  0.000000D+00
     66 -0.282065D-05  0.400134D-02 -0.569708D-02 -0.278048D-02 -0.148720D-01
     67 -0.632356D-03  0.196003D-01 -0.233527D-01 -0.113974D-01 -0.609614D-01
     68  0.000000D+00  0.527094D-01 -0.555561D-01  0.000000D+00  0.000000D+00
     69  0.000000D+00  0.309785D+00 -0.303665D+00  0.000000D+00  0.000000D+00
     70  0.000000D+00  0.673317D-01  0.598522D-01  0.000000D+00  0.000000D+00
     71  0.000000D+00  0.000000D+00  0.000000D+00  0.126532D+00  0.000000D+00
     72  0.242739D+00  0.000000D+00  0.000000D+00  0.000000D+00  0.126532D+00
     73  0.000000D+00  0.581168D+00 -0.491037D+00  0.000000D+00  0.000000D+00
     74  0.000000D+00  0.250193D+00  0.258780D+00  0.000000D+00  0.000000D+00
     75  0.000000D+00  0.000000D+00  0.000000D+00  0.470171D+00  0.000000D+00
     76  0.579631D+00  0.000000D+00  0.000000D+00  0.000000D+00  0.470171D+00
     77  0.000000D+00  0.867984D+00 -0.461882D+00  0.000000D+00  0.000000D+00
     78  0.000000D+00  0.461882D+00  0.622202D+00  0.000000D+00  0.000000D+00
     79  0.000000D+00  0.000000D+00  0.000000D+00  0.867984D+00  0.000000D+00
     80  0.470171D+00  0.000000D+00  0.000000D+00  0.000000D+00  0.867984D+00
     81  0.000000D+00  0.254635D+00 -0.229601D+00  0.000000D+00  0.000000D+00
     82  0.000000D+00  0.247363D+00 -0.249594D+00  0.000000D+00  0.000000D+00
     83  0.000000D+00  0.247363D+00 -0.249594D+00  0.000000D+00  0.000000D+00
     84  0.000000D+00  0.000000D+00  0.000000D+00  0.236690D-01  0.000000D+00
     85  0.161252D+00  0.000000D+00  0.000000D+00  0.000000D+00  0.236690D-01
     86  0.000000D+00  0.000000D+00  0.000000D+00  0.000000D+00  0.000000D+00
     87 -0.139426D-04  0.654163D-02  0.277141D-02 -0.454614D-02 -0.243160D-01
     88 -0.169271D-02  0.295731D-01  0.104833D-01 -0.171965D-01 -0.919790D-01
     89  0.282455D+00  0.258482D+00  0.109596D+00  0.137718D+00  0.115559D+00
     90  0.320198D+00  0.640357D+00  0.226998D+00  0.285246D+00  0.239350D+00
     91  0.555068D-01  0.158045D+00 -0.225200D+00  0.841958D-01  0.706487D-01
     92  0.119619D+00  0.424412D+00 -0.505665D+00  0.189054D+00  0.158635D+00
               41            42            43            44            45 
     41  0.100000D+01
     42  0.333333D+00  0.100000D+01
     43  0.333333D+00  0.333333D+00  0.100000D+01
     44  0.000000D+00  0.000000D+00  0.000000D+00  0.100000D+01
     45  0.000000D+00  0.000000D+00  0.000000D+00  0.000000D+00  0.100000D+01
     46  0.000000D+00  0.000000D+00  0.000000D+00  0.000000D+00  0.000000D+00
     47  0.000000D+00  0.000000D+00  0.000000D+00  0.000000D+00  0.000000D+00
     48  0.000000D+00  0.000000D+00  0.000000D+00  0.000000D+00  0.000000D+00
     49  0.000000D+00  0.000000D+00  0.000000D+00  0.000000D+00  0.000000D+00
     50  0.000000D+00  0.000000D+00  0.000000D+00  0.000000D+00  0.000000D+00
     51  0.000000D+00  0.000000D+00  0.000000D+00  0.000000D+00  0.000000D+00
     52  0.139889D-05  0.101374D-05  0.633240D-05  0.000000D+00  0.247900D-05
     53  0.167548D-05  0.174867D-05  0.109232D-04  0.000000D+00  0.190255D-05
     54  0.000000D+00  0.000000D+00  0.000000D+00  0.000000D+00  0.000000D+00
     55  0.896710D-05  0.649823D-05  0.378509D-04  0.000000D+00  0.152520D-04
     56  0.624945D-02  0.607098D-02  0.853551D-02  0.000000D+00  0.114871D-02
     57  0.563504D-02  0.612573D-02  0.861250D-02  0.000000D+00 -0.999621D-03
     58  0.000000D+00  0.000000D+00  0.000000D+00 -0.580902D-03  0.000000D+00
     59  0.234330D-01  0.227638D-01  0.295122D-01  0.000000D+00  0.372630D-02
     60  0.000000D+00  0.000000D+00  0.000000D+00  0.000000D+00  0.000000D+00
     61  0.000000D+00  0.000000D+00  0.000000D+00  0.000000D+00  0.000000D+00
     62  0.000000D+00  0.000000D+00  0.000000D+00  0.000000D+00  0.000000D+00
     63  0.000000D+00  0.000000D+00  0.000000D+00  0.000000D+00  0.000000D+00
     64  0.000000D+00  0.000000D+00  0.000000D+00  0.000000D+00  0.000000D+00
     65  0.000000D+00  0.000000D+00  0.000000D+00  0.000000D+00  0.000000D+00
     66  0.000000D+00  0.000000D+00  0.000000D+00  0.000000D+00  0.000000D+00
     67  0.000000D+00  0.000000D+00  0.256552D-05  0.000000D+00  0.141032D-05
     68  0.526767D-01  0.113280D-02  0.113280D-02  0.000000D+00  0.000000D+00
     69  0.334402D+00  0.928256D-01  0.928256D-01  0.000000D+00  0.000000D+00
     70  0.413876D+00  0.142160D+00  0.142160D+00  0.000000D+00  0.000000D+00
     71  0.000000D+00  0.000000D+00  0.000000D+00 -0.183392D+00  0.000000D+00
     72  0.000000D+00  0.000000D+00  0.000000D+00  0.000000D+00 -0.183392D+00
     73  0.353148D+00  0.255918D+00  0.255918D+00  0.000000D+00  0.000000D+00
     74  0.422973D+00  0.441451D+00  0.441451D+00  0.000000D+00  0.000000D+00
     75  0.000000D+00  0.000000D+00  0.000000D+00 -0.161252D+00  0.000000D+00
     76  0.000000D+00  0.000000D+00  0.000000D+00  0.000000D+00 -0.161252D+00
     77  0.254635D+00  0.247363D+00  0.247363D+00  0.000000D+00  0.000000D+00
     78  0.229601D+00  0.249594D+00  0.249594D+00  0.000000D+00  0.000000D+00
     79  0.000000D+00  0.000000D+00  0.000000D+00 -0.236690D-01  0.000000D+00
     80  0.000000D+00  0.000000D+00  0.000000D+00  0.000000D+00 -0.236690D-01
     81  0.487216D+00  0.154963D+00  0.154963D+00  0.000000D+00  0.000000D+00
     82  0.154963D+00  0.753228D-01  0.251076D-01  0.000000D+00  0.000000D+00
     83  0.154963D+00  0.251076D-01  0.753228D-01  0.000000D+00  0.000000D+00
     84  0.000000D+00  0.000000D+00  0.000000D+00 -0.314243D+00  0.000000D+00
     85  0.000000D+00  0.000000D+00  0.000000D+00  0.000000D+00 -0.314243D+00
     86  0.000000D+00  0.000000D+00  0.000000D+00  0.000000D+00  0.000000D+00
     87  0.000000D+00  0.000000D+00  0.000000D+00  0.000000D+00  0.000000D+00
     88  0.232224D-05  0.255412D-05  0.127421D-04  0.000000D+00 -0.208405D-05
     89  0.207129D+00  0.259885D+00  0.217314D+00  0.198296D+00  0.166390D+00
     90  0.371459D+00  0.384161D+00  0.373911D+00  0.477440D-01  0.400620D-01
     91  0.137730D-01  0.331699D-02  0.281423D-02 -0.787115D-02 -0.660468D-02
     92  0.120267D+00  0.773478D-01  0.752841D-01 -0.323093D-01 -0.271107D-01
               46            47            48            49            50 
     46  0.100000D+01
     47  0.000000D+00  0.100000D+01
     48  0.000000D+00  0.219059D+00  0.100000D+01
     49  0.000000D+00  0.000000D+00  0.000000D+00  0.100000D+01
     50  0.000000D+00  0.000000D+00  0.000000D+00  0.000000D+00  0.100000D+01
     51  0.000000D+00  0.000000D+00  0.000000D+00  0.000000D+00  0.000000D+00
     52  0.000000D+00  0.184261D+00  0.812273D+00  0.000000D+00  0.000000D+00
     53  0.000000D+00  0.000000D+00  0.000000D+00  0.569754D+00  0.000000D+00
     54 -0.237366D-05  0.000000D+00  0.000000D+00  0.000000D+00  0.569754D+00
     55  0.000000D+00  0.000000D+00  0.000000D+00  0.000000D+00  0.000000D+00
     56  0.000000D+00  0.697718D-01  0.402091D+00  0.000000D+00  0.000000D+00
     57  0.000000D+00  0.000000D+00  0.000000D+00  0.164679D+00  0.000000D+00
     58 -0.215869D-02  0.000000D+00  0.000000D+00  0.000000D+00  0.164679D+00
     59  0.000000D+00  0.000000D+00  0.000000D+00  0.000000D+00  0.000000D+00
     60  0.000000D+00  0.791027D-01  0.710235D+00  0.000000D+00  0.000000D+00
     61  0.000000D+00  0.791027D-01  0.710235D+00  0.000000D+00  0.000000D+00
     62  0.000000D+00  0.791027D-01  0.710235D+00  0.000000D+00  0.000000D+00
     63  0.000000D+00  0.000000D+00  0.000000D+00  0.000000D+00  0.000000D+00
     64  0.000000D+00  0.000000D+00  0.000000D+00  0.000000D+00  0.000000D+00
     65  0.000000D+00  0.000000D+00  0.000000D+00  0.000000D+00  0.000000D+00
     66  0.000000D+00  0.320525D-01  0.270664D+00 -0.190665D+00 -0.312763D+00
     67  0.000000D+00  0.916644D-01  0.473962D+00 -0.138279D+00 -0.226830D+00
     68  0.000000D+00  0.000000D+00  0.000000D+00  0.000000D+00  0.000000D+00
     69  0.000000D+00  0.000000D+00  0.000000D+00  0.000000D+00  0.000000D+00
     70  0.000000D+00  0.000000D+00  0.000000D+00  0.000000D+00  0.000000D+00
     71  0.000000D+00  0.000000D+00  0.000000D+00  0.000000D+00  0.000000D+00
     72  0.000000D+00  0.000000D+00  0.000000D+00  0.000000D+00  0.000000D+00
     73  0.000000D+00  0.000000D+00  0.902429D-05  0.000000D+00  0.000000D+00
     74  0.000000D+00  0.000000D+00  0.000000D+00  0.510483D-05  0.000000D+00
     75  0.000000D+00  0.000000D+00  0.000000D+00  0.000000D+00  0.510483D-05
     76  0.000000D+00  0.000000D+00 -0.533810D-04  0.000000D+00  0.000000D+00
     77  0.000000D+00  0.145172D-02  0.109510D-01  0.000000D+00  0.000000D+00
     78  0.000000D+00  0.000000D+00  0.000000D+00  0.433551D-02  0.000000D+00
     79  0.000000D+00  0.000000D+00  0.000000D+00  0.000000D+00  0.433551D-02
     80  0.000000D+00 -0.568561D-02 -0.399288D-01  0.000000D+00  0.000000D+00
     81  0.000000D+00  0.000000D+00  0.000000D+00  0.000000D+00  0.000000D+00
     82  0.000000D+00  0.000000D+00  0.000000D+00  0.000000D+00  0.000000D+00
     83  0.000000D+00  0.000000D+00  0.000000D+00  0.000000D+00  0.000000D+00
     84  0.000000D+00  0.000000D+00  0.000000D+00  0.000000D+00  0.000000D+00
     85  0.000000D+00  0.000000D+00  0.000000D+00  0.000000D+00  0.000000D+00
     86  0.753228D-01  0.000000D+00  0.000000D+00  0.000000D+00  0.000000D+00
     87  0.000000D+00  0.430533D-04  0.789566D-02  0.152645D-01 -0.744992D-02
     88  0.341863D-05  0.142782D-01  0.109874D+00  0.102096D+00 -0.498287D-01
     89  0.209086D+00  0.000000D+00  0.000000D+00  0.000000D+00  0.000000D+00
     90  0.503418D-01  0.000000D+00  0.000000D+00  0.000000D+00  0.000000D+00
     91  0.246930D-02  0.000000D+00  0.000000D+00  0.000000D+00  0.000000D+00
     92  0.101359D-01  0.000000D+00  0.000000D+00  0.000000D+00  0.000000D+00
               51            52            53            54            55 
     51  0.100000D+01
     52  0.000000D+00  0.100000D+01
     53  0.000000D+00  0.000000D+00  0.100000D+01
     54  0.000000D+00  0.000000D+00  0.000000D+00  0.100000D+01
     55  0.569754D+00  0.000000D+00  0.000000D+00  0.000000D+00  0.100000D+01
     56  0.000000D+00  0.727666D+00  0.000000D+00  0.000000D+00  0.000000D+00
     57  0.000000D+00  0.000000D+00  0.588690D+00  0.000000D+00  0.000000D+00
     58  0.000000D+00  0.000000D+00  0.000000D+00  0.588690D+00  0.000000D+00
     59  0.164679D+00  0.000000D+00  0.000000D+00  0.000000D+00  0.588690D+00
     60  0.000000D+00  0.629936D+00  0.000000D+00  0.000000D+00  0.000000D+00
     61  0.000000D+00  0.629936D+00  0.000000D+00  0.000000D+00  0.000000D+00
     62  0.000000D+00  0.629936D+00  0.000000D+00  0.000000D+00  0.000000D+00
     63  0.000000D+00  0.000000D+00  0.000000D+00  0.000000D+00  0.000000D+00
     64  0.000000D+00  0.000000D+00  0.000000D+00  0.000000D+00  0.000000D+00
     65  0.000000D+00  0.000000D+00  0.000000D+00  0.000000D+00  0.000000D+00
     66  0.000000D+00  0.375116D+00 -0.267879D+00 -0.439422D+00  0.000000D+00
     67  0.000000D+00  0.702351D+00 -0.303675D+00 -0.498140D+00  0.000000D+00
     68  0.000000D+00  0.000000D+00  0.000000D+00  0.000000D+00  0.000000D+00
     69  0.000000D+00  0.902429D-05  0.000000D+00  0.000000D+00  0.533810D-04
     70  0.000000D+00  0.000000D+00  0.510483D-05  0.000000D+00  0.000000D+00
     71  0.000000D+00  0.000000D+00  0.000000D+00  0.510483D-05  0.000000D+00
     72  0.000000D+00 -0.198119D-04  0.000000D+00  0.000000D+00 -0.112620D-03
     73  0.198119D-04  0.536132D-03  0.000000D+00  0.000000D+00  0.208074D-02
     74  0.000000D+00  0.000000D+00  0.536132D-03  0.000000D+00  0.000000D+00
     75  0.000000D+00  0.000000D+00  0.000000D+00  0.536132D-03  0.000000D+00
     76 -0.112620D-03 -0.208074D-02  0.000000D+00  0.000000D+00 -0.753923D-02
     77  0.857327D-02  0.326373D-01  0.000000D+00  0.000000D+00  0.522126D-01
     78  0.000000D+00  0.000000D+00  0.264040D-01  0.000000D+00  0.000000D+00
     79  0.000000D+00  0.000000D+00  0.000000D+00  0.264040D-01  0.000000D+00
     80 -0.271881D-01 -0.102474D+00  0.000000D+00  0.000000D+00 -0.137532D+00
     81  0.000000D+00  0.249530D-05  0.000000D+00  0.000000D+00  0.159953D-04
     82  0.000000D+00  0.249530D-05  0.000000D+00  0.000000D+00  0.159953D-04
     83  0.000000D+00  0.155871D-04  0.000000D+00  0.000000D+00  0.931692D-04
     84  0.000000D+00  0.000000D+00  0.000000D+00  0.000000D+00  0.000000D+00
     85  0.000000D+00  0.000000D+00 -0.584271D-05  0.000000D+00  0.000000D+00
     86  0.000000D+00  0.000000D+00  0.000000D+00 -0.584271D-05  0.000000D+00
     87  0.000000D+00  0.740737D-01  0.176934D+00 -0.863532D-01  0.000000D+00
     88  0.000000D+00  0.262382D+00  0.381297D+00 -0.186094D+00  0.000000D+00
     89  0.000000D+00  0.000000D+00  0.000000D+00  0.000000D+00  0.000000D+00
     90  0.000000D+00  0.284121D-04  0.412888D-04  0.154367D-04  0.120736D-03
     91  0.000000D+00  0.000000D+00  0.000000D+00  0.000000D+00  0.000000D+00
     92  0.125943D-05  0.760542D-04 -0.328835D-04  0.413214D-04  0.323188D-03
               56            57            58            59            60 
     56  0.100000D+01
     57  0.000000D+00  0.100000D+01
     58  0.000000D+00  0.000000D+00  0.100000D+01
     59  0.000000D+00  0.000000D+00  0.000000D+00  0.100000D+01
     60  0.323540D+00  0.000000D+00  0.000000D+00  0.000000D+00  0.100000D+01
     61  0.323540D+00  0.000000D+00  0.000000D+00  0.000000D+00  0.333333D+00
     62  0.323540D+00  0.000000D+00  0.000000D+00  0.000000D+00  0.333333D+00
     63  0.000000D+00  0.000000D+00  0.000000D+00  0.000000D+00  0.000000D+00
     64  0.000000D+00  0.000000D+00  0.000000D+00  0.000000D+00  0.000000D+00
     65  0.000000D+00  0.000000D+00  0.000000D+00  0.000000D+00  0.000000D+00
     66  0.258482D+00 -0.109596D+00 -0.179778D+00  0.000000D+00  0.207129D+00
     67  0.640357D+00 -0.226998D+00 -0.372362D+00  0.000000D+00  0.371459D+00
     68  0.145172D-02  0.000000D+00  0.000000D+00  0.568561D-02  0.000000D+00
     69  0.109510D-01  0.000000D+00  0.000000D+00  0.399288D-01  0.000000D+00
     70  0.000000D+00  0.433551D-02  0.000000D+00  0.000000D+00  0.000000D+00
     71  0.000000D+00  0.000000D+00  0.433551D-02  0.000000D+00  0.000000D+00
     72 -0.857327D-02  0.000000D+00  0.000000D+00 -0.271881D-01  0.000000D+00
     73  0.326373D-01  0.000000D+00  0.000000D+00  0.102474D+00  0.249530D-05
     74  0.000000D+00  0.264040D-01  0.000000D+00  0.000000D+00  0.000000D+00
     75  0.000000D+00  0.000000D+00  0.264040D-01  0.000000D+00  0.000000D+00
     76 -0.522126D-01  0.000000D+00  0.000000D+00 -0.137532D+00 -0.159953D-04
     77  0.141542D+00  0.000000D+00  0.000000D+00  0.279893D+00  0.794057D-02
     78  0.000000D+00  0.141542D+00  0.000000D+00  0.000000D+00  0.000000D+00
     79  0.000000D+00  0.000000D+00  0.141542D+00  0.000000D+00  0.000000D+00
     80 -0.279893D+00  0.000000D+00  0.000000D+00 -0.411932D+00 -0.297741D-01
     81  0.794057D-02  0.000000D+00  0.000000D+00  0.297741D-01  0.000000D+00
     82  0.794057D-02  0.000000D+00  0.000000D+00  0.297741D-01  0.000000D+00
     83  0.111641D-01  0.000000D+00  0.000000D+00  0.386007D-01  0.000000D+00
     84  0.000000D+00  0.000000D+00  0.000000D+00  0.000000D+00  0.000000D+00
     85  0.000000D+00 -0.282347D-02  0.000000D+00  0.000000D+00  0.000000D+00
     86  0.000000D+00  0.000000D+00 -0.282347D-02  0.000000D+00  0.000000D+00
     87  0.158045D+00  0.225200D+00 -0.109910D+00  0.000000D+00  0.137730D-01
     88  0.424412D+00  0.505665D+00 -0.246792D+00  0.000000D+00  0.120267D+00
     89  0.165441D-02  0.235514D-02  0.880519D-03  0.688683D-02  0.000000D+00
     90  0.935978D-02  0.111517D-01  0.416930D-02  0.326095D-01  0.000000D+00
     91  0.270450D-02 -0.114558D-02  0.143954D-02  0.112591D-01  0.000000D+00
     92  0.141221D-01 -0.500611D-02  0.629067D-02  0.492015D-01  0.000000D+00
               61            62            63            64            65 
     61  0.100000D+01
     62  0.333333D+00  0.100000D+01
     63  0.000000D+00  0.000000D+00  0.100000D+01
     64  0.000000D+00  0.000000D+00  0.000000D+00  0.100000D+01
     65  0.000000D+00  0.000000D+00  0.000000D+00  0.000000D+00  0.100000D+01
     66  0.361177D+00  0.116021D+00  0.258857D+00  0.000000D+00  0.000000D+00
     67  0.408549D+00  0.349523D+00  0.623253D-01  0.000000D+00  0.000000D+00
     68  0.000000D+00  0.000000D+00  0.000000D+00  0.000000D+00  0.000000D+00
     69  0.000000D+00  0.000000D+00  0.000000D+00  0.000000D+00  0.000000D+00
     70  0.000000D+00  0.000000D+00  0.000000D+00  0.000000D+00  0.000000D+00
     71  0.000000D+00  0.000000D+00  0.000000D+00  0.000000D+00  0.000000D+00
     72  0.000000D+00  0.000000D+00  0.000000D+00  0.000000D+00  0.000000D+00
     73  0.249530D-05  0.155871D-04  0.000000D+00  0.000000D+00  0.000000D+00
     74  0.000000D+00  0.000000D+00  0.000000D+00  0.584271D-05  0.000000D+00
     75  0.000000D+00  0.000000D+00  0.000000D+00  0.000000D+00  0.584271D-05
     76 -0.159953D-04 -0.931692D-04  0.000000D+00  0.000000D+00  0.000000D+00
     77  0.794057D-02  0.111641D-01  0.000000D+00  0.000000D+00  0.000000D+00
     78  0.000000D+00  0.000000D+00  0.000000D+00  0.282347D-02  0.000000D+00
     79  0.000000D+00  0.000000D+00  0.000000D+00  0.000000D+00  0.282347D-02
     80 -0.297741D-01 -0.386007D-01  0.000000D+00  0.000000D+00  0.000000D+00
     81  0.000000D+00  0.000000D+00  0.000000D+00  0.000000D+00  0.000000D+00
     82  0.000000D+00  0.000000D+00  0.000000D+00  0.000000D+00  0.000000D+00
     83  0.000000D+00  0.000000D+00  0.000000D+00  0.000000D+00  0.000000D+00
     84  0.000000D+00  0.000000D+00  0.000000D+00  0.000000D+00  0.000000D+00
     85  0.000000D+00  0.000000D+00  0.000000D+00  0.000000D+00  0.000000D+00
     86  0.000000D+00  0.000000D+00  0.000000D+00  0.000000D+00  0.000000D+00
     87  0.451326D-02  0.161797D-02 -0.102751D-01  0.000000D+00  0.000000D+00
     88  0.822582D-01  0.703737D-01 -0.421768D-01  0.000000D+00  0.000000D+00
     89  0.000000D+00  0.000000D+00  0.000000D+00  0.000000D+00  0.000000D+00
     90  0.000000D+00  0.000000D+00  0.000000D+00  0.000000D+00  0.000000D+00
     91  0.000000D+00  0.000000D+00  0.000000D+00  0.000000D+00  0.000000D+00
     92  0.000000D+00  0.000000D+00  0.000000D+00  0.000000D+00  0.000000D+00
               66            67            68            69            70 
     66  0.100000D+01
     67  0.658292D+00  0.100000D+01
     68  0.000000D+00  0.000000D+00  0.100000D+01
     69  0.000000D+00  0.768895D-05  0.219059D+00  0.100000D+01
     70  0.000000D+00 -0.186077D-05  0.000000D+00  0.000000D+00  0.100000D+01
     71  0.000000D+00 -0.305236D-05  0.000000D+00  0.000000D+00  0.000000D+00
     72  0.000000D+00 -0.163262D-04  0.000000D+00  0.000000D+00  0.000000D+00
     73  0.226477D-05  0.446206D-03  0.184261D+00  0.812273D+00  0.000000D+00
     74 -0.158910D-05 -0.192926D-03  0.000000D+00  0.000000D+00  0.569754D+00
     75 -0.260672D-05 -0.316470D-03  0.000000D+00  0.000000D+00  0.000000D+00
     76 -0.139426D-04 -0.169271D-02  0.000000D+00  0.000000D+00  0.000000D+00
     77  0.654163D-02  0.295731D-01  0.697718D-01  0.402091D+00  0.000000D+00
     78 -0.277141D-02 -0.104833D-01  0.000000D+00  0.000000D+00  0.164679D+00
     79 -0.454614D-02 -0.171965D-01  0.000000D+00  0.000000D+00  0.000000D+00
     80 -0.243160D-01 -0.919790D-01  0.000000D+00  0.000000D+00  0.000000D+00
     81  0.000000D+00  0.232224D-05  0.791027D-01  0.710235D+00  0.000000D+00
     82  0.000000D+00  0.255412D-05  0.791027D-01  0.710235D+00  0.000000D+00
     83  0.000000D+00  0.127421D-04  0.791027D-01  0.710235D+00  0.000000D+00
     84  0.000000D+00  0.000000D+00  0.000000D+00  0.000000D+00  0.000000D+00
     85  0.000000D+00  0.208405D-05  0.000000D+00  0.000000D+00  0.000000D+00
     86  0.000000D+00  0.341863D-05  0.000000D+00  0.000000D+00  0.000000D+00
     87  0.571644D-03  0.366357D-01  0.000000D+00  0.000000D+00  0.000000D+00
     88  0.366357D-01  0.168873D+00  0.000000D+00  0.174431D-05  0.141044D-05
     89  0.000000D+00  0.000000D+00  0.430532D-04  0.789566D-02  0.152645D-01
     90  0.000000D+00  0.919414D-05  0.142782D-01  0.109874D+00  0.102096D+00
     91  0.000000D+00  0.000000D+00  0.320525D-01  0.270664D+00 -0.190665D+00
     92  0.000000D+00  0.544443D-04  0.916644D-01  0.473962D+00 -0.138279D+00
               71            72            73            74            75 
     71  0.100000D+01
     72  0.000000D+00  0.100000D+01
     73  0.000000D+00  0.000000D+00  0.100000D+01
     74  0.000000D+00  0.000000D+00  0.000000D+00  0.100000D+01
     75  0.569754D+00  0.000000D+00  0.000000D+00  0.000000D+00  0.100000D+01
     76  0.000000D+00  0.569754D+00  0.000000D+00  0.000000D+00  0.000000D+00
     77  0.000000D+00  0.000000D+00  0.727666D+00  0.000000D+00  0.000000D+00
     78  0.000000D+00  0.000000D+00  0.000000D+00  0.588690D+00  0.000000D+00
     79  0.164679D+00  0.000000D+00  0.000000D+00  0.000000D+00  0.588690D+00
     80  0.000000D+00  0.164679D+00  0.000000D+00  0.000000D+00  0.000000D+00
     81  0.000000D+00  0.000000D+00  0.629936D+00  0.000000D+00  0.000000D+00
     82  0.000000D+00  0.000000D+00  0.629936D+00  0.000000D+00  0.000000D+00
     83  0.000000D+00  0.000000D+00  0.629936D+00  0.000000D+00  0.000000D+00
     84  0.000000D+00  0.000000D+00  0.000000D+00  0.000000D+00  0.000000D+00
     85  0.000000D+00  0.000000D+00  0.000000D+00  0.000000D+00  0.000000D+00
     86  0.000000D+00  0.000000D+00  0.000000D+00  0.000000D+00  0.000000D+00
     87  0.000000D+00  0.000000D+00  0.000000D+00  0.108052D-05  0.000000D+00
     88  0.000000D+00 -0.368190D-05  0.166693D-03  0.242240D-03 -0.118226D-03
     89  0.570697D-02  0.478872D-02  0.740737D-01  0.176933D+00  0.661504D-01
     90  0.381710D-01  0.320293D-01  0.262382D+00  0.381297D+00  0.142556D+00
     91  0.239590D+00  0.201040D+00  0.375116D+00 -0.267879D+00  0.336616D+00
     92  0.173762D+00  0.145804D+00  0.702351D+00 -0.303675D+00  0.381598D+00
               76            77            78            79            80 
     76  0.100000D+01
     77  0.000000D+00  0.100000D+01
     78  0.000000D+00  0.000000D+00  0.100000D+01
     79  0.000000D+00  0.000000D+00  0.000000D+00  0.100000D+01
     80  0.588690D+00  0.000000D+00  0.000000D+00  0.000000D+00  0.100000D+01
     81  0.000000D+00  0.323540D+00  0.000000D+00  0.000000D+00  0.000000D+00
     82  0.000000D+00  0.323540D+00  0.000000D+00  0.000000D+00  0.000000D+00
     83  0.000000D+00  0.323540D+00  0.000000D+00  0.000000D+00  0.000000D+00
     84  0.000000D+00  0.000000D+00  0.000000D+00  0.000000D+00  0.000000D+00
     85  0.000000D+00  0.000000D+00  0.000000D+00  0.000000D+00  0.000000D+00
     86  0.000000D+00  0.000000D+00  0.000000D+00  0.000000D+00  0.000000D+00
     87 -0.282065D-05  0.400134D-02  0.569708D-02 -0.278048D-02 -0.148720D-01
     88 -0.632356D-03  0.196003D-01  0.233527D-01 -0.113974D-01 -0.609614D-01
     89  0.555068D-01  0.158045D+00  0.225200D+00  0.841958D-01  0.706487D-01
     90  0.119619D+00  0.424412D+00  0.505665D+00  0.189054D+00  0.158635D+00
     91  0.282455D+00  0.258482D+00 -0.109596D+00  0.137718D+00  0.115559D+00
     92  0.320198D+00  0.640357D+00 -0.226998D+00  0.285246D+00  0.239350D+00
               81            82            83            84            85 
     81  0.100000D+01
     82  0.333333D+00  0.100000D+01
     83  0.333333D+00  0.333333D+00  0.100000D+01
     84  0.000000D+00  0.000000D+00  0.000000D+00  0.100000D+01
     85  0.000000D+00  0.000000D+00  0.000000D+00  0.000000D+00  0.100000D+01
     86  0.000000D+00  0.000000D+00  0.000000D+00  0.000000D+00  0.000000D+00
     87  0.000000D+00  0.000000D+00  0.000000D+00  0.000000D+00  0.000000D+00
     88  0.000000D+00  0.000000D+00  0.256552D-05  0.000000D+00 -0.141032D-05
     89  0.137730D-01  0.331699D-02  0.281423D-02  0.787115D-02  0.660468D-02
     90  0.120267D+00  0.773478D-01  0.752841D-01  0.323093D-01  0.271107D-01
[...]
  70        2PX         0.00000   0.00000   0.00000   0.00000   0.42303
  71        2PY         0.00000   0.00000   0.00000   0.00000   0.00000
  72        2PZ         0.00000   0.00000   0.00000   0.00000   0.00000
  73        3S          0.00000   0.00000  -0.03012   0.21798   0.00000
  74        3PX         0.00000   0.00000   0.00000   0.00000   0.07888
  75        3PY         0.00000   0.00000   0.00000   0.00000   0.00000
  76        3PZ         0.00000   0.00000   0.00000   0.00000   0.00000
  77        4S         -0.00001  -0.00002   0.00292  -0.00788   0.00000
  78        4PX         0.00000   0.00000   0.00000   0.00000   0.00558
  79        4PY         0.00000   0.00000   0.00000   0.00000   0.00000
  80        4PZ        -0.00001  -0.00002   0.00000   0.00000   0.00000
  81        5XX         0.00000   0.00000  -0.00148   0.00024   0.00000
  82        5YY         0.00000   0.00000  -0.00136  -0.00297   0.00000
  83        5ZZ         0.00000   0.00000  -0.00121  -0.00571   0.00000
  84        5XY         0.00000   0.00000   0.00000   0.00000   0.00000
  85        5XZ         0.00000   0.00000   0.00000   0.00000   0.00000
  86        5YZ         0.00000   0.00000   0.00000   0.00000   0.00000
  87 10  H  1S         -0.00001  -0.00100   0.00000   0.00000   0.00000
  88        2S         -0.00100  -0.00466   0.00000   0.00000   0.00000
  89 11  H  1S          0.00000   0.00000   0.00000  -0.00023  -0.00058
  90        2S          0.00000   0.00000   0.00017  -0.00288  -0.00592
  91 12  H  1S          0.00000   0.00000  -0.00192   0.03158   0.02615
  92        2S          0.00000   0.00000  -0.00125   0.01534   0.01353
                          71        72        73        74        75
  71        2PY         0.37558
  72        2PZ         0.00000   0.36059
  73        3S          0.00000   0.00000   0.23444
  74        3PX         0.00000   0.00000   0.00000   0.04711
  75        3PY         0.10404   0.00000   0.00000   0.00000   0.09334
  76        3PZ         0.00000   0.10746   0.00000   0.00000   0.00000
  77        4S          0.00000   0.00000  -0.01511   0.00000   0.00000
  78        4PX         0.00000   0.00000   0.00000   0.00683   0.00000
  79        4PY         0.00652   0.00000   0.00000   0.00000   0.01212
  80        4PZ         0.00000   0.00690   0.00000   0.00000   0.00000
  81        5XX         0.00000   0.00000  -0.00015   0.00000   0.00000
  82        5YY         0.00000   0.00000  -0.00069   0.00000   0.00000
  83        5ZZ         0.00000   0.00000  -0.00299   0.00000   0.00000
  84        5XY         0.00000   0.00000   0.00000   0.00000   0.00000
  85        5XZ         0.00000   0.00000   0.00000   0.00000   0.00000
  86        5YZ         0.00000   0.00000   0.00000   0.00000   0.00000
  87 10  H  1S          0.00000   0.00000   0.00000   0.00000   0.00000
  88        2S          0.00000   0.00000   0.00000   0.00000   0.00000
  89 11  H  1S         -0.00008  -0.00006  -0.00237  -0.00290  -0.00076
  90        2S         -0.00123  -0.00088  -0.00555  -0.00763  -0.00250
  91 12  H  1S          0.04154   0.02926   0.04260   0.01400   0.02405
  92        2S          0.02295   0.01610   0.02634   0.01034   0.02105
                          76        77        78        79        80
  76        3PZ         0.10333
  77        4S          0.00000   0.00560
  78        4PX         0.00000   0.00000   0.00301
  79        4PY         0.00000   0.00000   0.00000   0.00498
  80        4PZ         0.01373   0.00000   0.00000   0.00000   0.00560
  81        5XX         0.00000   0.00009   0.00000   0.00000   0.00000
  82        5YY         0.00000  -0.00007   0.00000   0.00000   0.00000
  83        5ZZ         0.00000   0.00001   0.00000   0.00000   0.00000
  84        5XY         0.00000   0.00000   0.00000   0.00000   0.00000
  85        5XZ         0.00000   0.00000   0.00000   0.00000   0.00000
  86        5YZ         0.00000   0.00000   0.00000   0.00000   0.00000
  87 10  H  1S          0.00000   0.00000   0.00000   0.00000   0.00001
  88        2S          0.00000   0.00002   0.00001   0.00000   0.00002
  89 11  H  1S         -0.00055   0.00216  -0.00070  -0.00084  -0.00055
  90        2S         -0.00179   0.00220  -0.00240  -0.00180  -0.00119
  91 12  H  1S          0.01689  -0.00113   0.00142   0.00229   0.00164
  92        2S          0.01469   0.00095   0.00177   0.00391   0.00275
                          81        82        83        84        85
  81        5XX         0.00051
  82        5YY        -0.00004   0.00054
  83        5ZZ        -0.00002   0.00016   0.00049
  84        5XY         0.00000   0.00000   0.00000   0.00133
  85        5XZ         0.00000   0.00000   0.00000   0.00000   0.00109
  86        5YZ         0.00000   0.00000   0.00000   0.00000   0.00000
  87 10  H  1S          0.00000   0.00000   0.00000   0.00000   0.00000
  88        2S          0.00000   0.00000   0.00000   0.00000   0.00000
  89 11  H  1S          0.00003   0.00000   0.00000   0.00006   0.00004
  90        2S          0.00001   0.00012   0.00010   0.00023   0.00016
  91 12  H  1S         -0.00054   0.00067   0.00001   0.00209   0.00147
  92        2S         -0.00073   0.00088   0.00041   0.00042   0.00030
                          86        87        88        89        90
  86        5YZ         0.00082
  87 10  H  1S          0.00000   0.21519
  88        2S          0.00000   0.09414   0.10528
  89 11  H  1S          0.00000   0.00000   0.00000   0.21520
  90        2S          0.00001   0.00000   0.00000   0.09415   0.10526
  91 12  H  1S          0.00177   0.00000   0.00000  -0.00001  -0.00101
  92        2S          0.00020   0.00000   0.00000  -0.00101  -0.00472
                          91        92
  91 12  H  1S          0.21520
  92        2S          0.09415   0.10526
     Gross orbital populations:
                           1
   1 1   H  1S          0.52749
   2        2S          0.29032
   3 2   C  1S          1.99181
   4        2S          0.70830
   5        2PX         0.76612
   6        2PY         0.73185
   7        2PZ         0.54223
   8        3S          0.59538
   9        3PX         0.21347
  10        3PY         0.30806
  11        3PZ         0.39792
  12        4S          0.00520
  13        4PX         0.01705
  14        4PY         0.02171
  15        4PZ         0.05675
  16        5XX         0.00411
  17        5YY         0.01313
  18        5ZZ        -0.02581
  19        5XY         0.01469
  20        5XZ         0.00452
  21        5YZ         0.00000
  22 3   H  1S          0.52750
  23        2S          0.28892
  24 4   H  1S          0.52749
  25        2S          0.29032
  26 5   H  1S          0.52750
  27        2S          0.28892
  28 6   C  1S          1.99182
  29        2S          0.70817
  30        2PX         0.76603
  31        2PY         0.65326
  32        2PZ         0.62072
  33        3S          0.59552
  34        3PX         0.21433
  35        3PY         0.34576
  36        3PZ         0.36082
  37        4S         -0.00015
  38        4PX         0.01981
  39        4PY         0.03509
  40        4PZ         0.04066
  41        5XX         0.00408
  42        5YY        -0.00533
  43        5ZZ        -0.01219
  44        5XY         0.01049
  45        5XZ         0.00872
  46        5YZ         0.00478
  47 7   C  1S          1.99181
  48        2S          0.70830
  49        2PX         0.76612
  50        2PY         0.73185
  51        2PZ         0.54223
  52        3S          0.59538
  53        3PX         0.21347
  54        3PY         0.30806
  55        3PZ         0.39792
  56        4S          0.00520
  57        4PX         0.01705
  58        4PY         0.02171
  59        4PZ         0.05675
  60        5XX         0.00411
  61        5YY         0.01313
  62        5ZZ        -0.02581
  63        5XY         0.01469
  64        5XZ         0.00452
  65        5YZ         0.00000
  66 8   H  1S          0.52786
  67        2S          0.29055
  68 9   C  1S          1.99182
  69        2S          0.70817
  70        2PX         0.76603
  71        2PY         0.65326
  72        2PZ         0.62072
  73        3S          0.59552
  74        3PX         0.21433
  75        3PY         0.34576
  76        3PZ         0.36082
  77        4S         -0.00015
  78        4PX         0.01981
  79        4PY         0.03509
  80        4PZ         0.04066
  81        5XX         0.00408
  82        5YY        -0.00533
  83        5ZZ        -0.01219
  84        5XY         0.01049
  85        5XZ         0.00872
  86        5YZ         0.00478
  87 10  H  1S          0.52786
  88        2S          0.29055
  89 11  H  1S          0.52787
  90        2S          0.29059
  91 12  H  1S          0.52787
  92        2S          0.29059
          Condensed to atoms (all electrons):
              1          2          3          4          5          6
     1  H    0.507059  -0.000462   0.000000  -0.006706  -0.000001  -0.032345
     2  C   -0.000462   5.012081   0.381527   0.000642  -0.035308  -0.001632
     3  H    0.000000   0.381527   0.506096  -0.000001  -0.006648   0.000018
     4  H   -0.006706   0.000642  -0.000001   0.507059   0.000000   0.378992
     5  H   -0.000001  -0.035308  -0.006648   0.000000   0.506096   0.000038
     6  C   -0.032345  -0.001632   0.000018   0.378992   0.000038   4.999010
     7  C    0.000642   0.665669  -0.035308  -0.000462   0.381527  -0.001726
     8  H   -0.000002  -0.038287   0.003956   0.000000  -0.033253   0.000078
     9  C    0.378992  -0.001726   0.000038  -0.032345   0.000018   0.674292
    10  H    0.000000   0.383928  -0.033253  -0.000002   0.003956  -0.000070
    11  H    0.003961   0.000009   0.000000  -0.033320   0.000000   0.383820
    12  H   -0.033320   0.000059   0.000000   0.003961   0.000000  -0.038084
              7          8          9         10         11         12
     1  H    0.000642  -0.000002   0.378992   0.000000   0.003961  -0.033320
     2  C    0.665669  -0.038287  -0.001726   0.383928   0.000009   0.000059
     3  H   -0.035308   0.003956   0.000038  -0.033253   0.000000   0.000000
     4  H   -0.000462   0.000000  -0.032345  -0.000002  -0.033320   0.003961
     5  H    0.381527  -0.033253   0.000018   0.003956   0.000000   0.000000
     6  C   -0.001726   0.000078   0.674292  -0.000070   0.383820  -0.038084
     7  C    5.012081   0.383928  -0.001632  -0.038287   0.000059   0.000009
     8  H    0.383928   0.508738  -0.000070  -0.006680   0.000000   0.000000
     9  C   -0.001632  -0.000070   4.999010   0.000078  -0.038084   0.383820
    10  H   -0.038287  -0.006680   0.000078   0.508738   0.000000   0.000000
    11  H    0.000059   0.000000  -0.038084   0.000000   0.508756  -0.006743
    12  H    0.000009   0.000000   0.383820   0.000000  -0.006743   0.508756
 Mulliken atomic charges:
              1
     1  H    0.182183
     2  C   -0.366499
     3  H    0.183574
     4  H    0.182183
     5  H    0.183574
     6  C   -0.362390
     7  C   -0.366499
     8  H    0.181590
     9  C   -0.362390
    10  H    0.181590
    11  H    0.181542
    12  H    0.181542
 Sum of Mulliken atomic charges =   0.00000
 Mulliken charges with hydrogens summed into heavy atoms:
              1
     2  C   -0.001335
     6  C    0.001335
     7  C   -0.001335
     9  C    0.001335
 Sum of Mulliken charges with hydrogens summed into heavy atoms =   0.00000
 Electronic spatial extent (au):  <R**2>=           1597.5739
 Charge=              0.0000 electrons
 Dipole moment (field-independent basis, Debye):
    X=              0.0000    Y=              0.0171    Z=             -0.0140  Tot=              0.0221
 Quadrupole moment (field-independent basis, Debye-Ang):
   XX=            -24.9012   YY=            -26.3724   ZZ=            -31.1508
   XY=              0.0000   XZ=              0.0000   YZ=              1.8218
 Traceless Quadrupole moment (field-independent basis, Debye-Ang):
   XX=              2.5736   YY=              1.1024   ZZ=             -3.6760
   XY=              0.0000   XZ=              0.0000   YZ=              1.8218
 Octapole moment (field-independent basis, Debye-Ang**2):
  XXX=              0.0000  YYY=              0.0476  ZZZ=           -222.1045  XYY=              0.0000
  XXY=              0.0257  XXZ=            -62.2775  XZZ=              0.0000  YZZ=             18.2549
  YYZ=            -69.7889  XYZ=              0.0000
 Hexadecapole moment (field-independent basis, Debye-Ang**3):
 XXXX=           -143.9835 YYYY=            -55.8864 ZZZZ=          -2262.1186 XXXY=              0.0000
 XXXZ=              0.0000 YYYX=              0.0000 YYYZ=             -1.3467 ZZZX=              0.0000
 ZZZY=            135.4936 XXYY=            -29.6149 XXZZ=           -344.5463 YYZZ=           -366.7990
 XXYZ=              1.2162 YYXZ=              0.0000 ZZXY=              0.0000
 N-N= 9.238617166814D+01 E-N=-5.471554127323D+02  KE= 1.553425410324D+02
 Orbital energies and kinetic energies (alpha):
                                 1                 2
   1         O               -10.197805         15.874714
   2         O               -10.196998         15.886899
   3         O               -10.196136         15.874888
   4         O               -10.195328         15.886935
   5         O                -0.761200          1.527970
   6         O                -0.759478          1.528272
   7         O                -0.583698          1.282123
   8         O                -0.582038          1.282252
   9         O                -0.471877          0.935531
  10         O                -0.470142          0.935818
  11         O                -0.421891          1.269107
  12         O                -0.420228          1.269238
  13         O                -0.362450          1.044164
  14         O                -0.360757          1.044348
  15         O                -0.275993          1.000597
  16         O                -0.272298          1.028413
  17         V                -0.012637          0.906679
  18         V                -0.004092          1.003405
  19         V                 0.015615          0.326734
  20         V                 0.024870          0.284501
  21         V                 0.034329          0.332151
  22         V                 0.041800          0.309425
  23         V                 0.044769          0.355697
  24         V                 0.060264          0.365477
  25         V                 0.075496          0.310280
  26         V                 0.080009          0.254452
  27         V                 0.082781          0.289921
  28         V                 0.095232          0.251906
  29         V                 0.101136          0.331501
  30         V                 0.120470          0.571391
  31         V                 0.131999          0.614853
  32         V                 0.150058          0.468647
  33         V                 0.155736          0.473615
  34         V                 0.172843          0.680741
  35         V                 0.176044          0.826354
  36         V                 0.193256          0.881226
  37         V                 0.198777          0.860856
  38         V                 0.229583          0.697472
  39         V                 0.245927          0.942630
  40         V                 0.277896          0.756679
  41         V                 0.345167          1.247859
  42         V                 0.347021          1.244896
  43         V                 0.348844          1.238769
  44         V                 0.366712          1.443907
  45         V                 0.578011          1.622229
  46         V                 0.587576          1.635616
  47         V                 0.658502          1.833735
  48         V                 0.664029          1.856567
  49         V                 0.679192          2.100373
  50         V                 0.705840          2.096967
  51         V                 0.725509          2.300866
  52         V                 0.731176          2.293909
  53         V                 0.759697          2.807047
  54         V                 0.781112          2.804379
  55         V                 0.835255          1.713959
  56         V                 0.865755          1.766236
  57         V                 0.900706          2.287718
  58         V                 0.912233          2.236905
  59         V                 0.937455          2.771473
  60         V                 0.943911          2.773721
  61         V                 0.972025          2.513825
  62         V                 0.995583          2.472535
  63         V                 1.011689          2.547416
  64         V                 1.039463          2.527210
  65         V                 1.165728          2.252195
  66         V                 1.171007          2.259162
  67         V                 1.220585          2.244280
  68         V                 1.224878          2.249236
  69         V                 1.449020          2.640722
  70         V                 1.450765          2.640487
  71         V                 1.539954          2.655169
  72         V                 1.544158          2.656954
  73         V                 1.817417          2.968542
  74         V                 1.819695          2.968977
  75         V                 1.886378          3.097527
  76         V                 1.888717          3.097820
  77         V                 2.001013          3.475030
  78         V                 2.005011          3.477876
  79         V                 2.109255          3.469169
  80         V                 2.111300          3.470304
  81         V                 2.295468          3.607305
  82         V                 2.298121          3.607454
  83         V                 2.371642          3.596090
  84         V                 2.373527          3.596453
  85         V                 2.665892          4.101802
  86         V                 2.668023          4.102629
  87         V                 2.700515          4.771632
  88         V                 2.709111          4.776790
  89         V                 4.118568         10.141175
  90         V                 4.128708         10.155568
  91         V                 4.252233         10.023463
  92         V                 4.257471         10.027582
 Total kinetic energy from orbitals= 1.553425410324D+02

 Test job not archived.
 1\1\GINC-N20\SP\RB3LYP\6-31+G(d)\C4H8\SIM_JOBR9774\22-Mar-2018\0\\#b3l
 yp/6-31+g* scf=tight nosymm punch=mo iop(3/33=1) pop=full\\9_11_07\\0,
 1\H,0,-1.242623,-0.716103,4.399118\C,0,0.672749,0.,0.\H,0,1.242623,0.9
 34806,0.\H,0,1.242623,-0.716103,4.399118\H,0,-1.242623,0.934806,0.\C,0
 ,0.672749,0.,5.\C,0,-0.672749,0.,0.\H,0,-1.242623,-0.934806,0.\C,0,-0.
 672749,0.,5.\H,0,1.242623,-0.934806,0.\H,0,1.242623,0.716103,5.600882\
 H,0,-1.242623,0.716103,5.600882\\Version=EM64L-G09RevA.01\HF=-157.1857
 421\RMSD=3.809e-09\Dipole=0.,0.0067371,-0.005509\Quadrupole=1.9134223,
 0.8196165,-2.7330388,0.,0.,1.3544404\PG=CS [X(C4H8)]\\@


 CHARLIE BROWN..'I CAN'T GET THAT STUPID KITE IN THE   
 AIR... I CAN'T... I C A N N O T...'                          
 LUCY..'OH COME NOW CHARLIE BROWN...THAT'S NO WAY TO TALK...  
 THE TROUBLE WITH YOU IS YOU DON'T BELIEVE IN YOURSELF... YOU 
 DON'T BELIEVE IN YOUR OWN ABILITIES...  YOU'VE GOT TO SAY TO 
 YOURSELF...'I BELIEVE I CAN FLY THIS KITE.'... GO AHEAD SAY  
 IT....'
 CHARLIE BROWN..'I BELIEVE THAT I CAN FLY THIS STUPID  
 KITE.....I BELIEVE THAT I CAN FLY THIS KITE........          
 I  A C T U A L L Y  B E L I E V E  T H A T  I  C A N ******' 
 LUCY..'I'LL BET YOU TEN-TO-ONE YOU'RE WRONG.......'    SCHULZ
 Job cpu time:  0 days  0 hours  0 minutes 24.3 seconds.
 File lengths (MBytes):  RWF=      9 Int=      0 D2E=      0 Chk=      1 Scr=      1
 Normal termination of Gaussian 09 at Thu Mar 22 16:20:54 2018.
