 Entering Gaussian System, Link 0=g03
 Input=60_2.com
 Output=60_2.log
 Initial command:
 /usr/local/g03/l1.exe /export/home/joe2/code/J_from_g03/examples/ethylene/Gau-17727.inp -scrdir=/export/home/joe2/code/J_from_g03/examples/ethylene/
 Entering Link 1 = /usr/local/g03/l1.exe PID=     17728.
  
 Copyright (c) 1988,1990,1992,1993,1995,1998,2003, Gaussian, Inc.
                  All Rights Reserved.
  
 This is the Gaussian(R) 03 program.  It is based on the
 the Gaussian(R) 98 system (copyright 1998, Gaussian, Inc.),
 the Gaussian(R) 94 system (copyright 1995, Gaussian, Inc.),
 the Gaussian 92(TM) system (copyright 1992, Gaussian, Inc.),
 the Gaussian 90(TM) system (copyright 1990, Gaussian, Inc.),
 the Gaussian 88(TM) system (copyright 1988, Gaussian, Inc.),
 the Gaussian 86(TM) system (copyright 1986, Carnegie Mellon
 University), and the Gaussian 82(TM) system (copyright 1983,
 Carnegie Mellon University). Gaussian is a federally registered
 trademark of Gaussian, Inc.
  
 This software contains proprietary and confidential information,
 including trade secrets, belonging to Gaussian, Inc.
  
 This software is provided under written license and may be
 used, copied, transmitted, or stored only in accord with that
 written license.
  
 The following legend is applicable only to US Government
 contracts under DFARS:
  
                    RESTRICTED RIGHTS LEGEND
  
 Use, duplication or disclosure by the US Government is subject
 to restrictions as set forth in subparagraph (c)(1)(ii) of the
 Rights in Technical Data and Computer Software clause at DFARS
 252.227-7013.
  
 Gaussian, Inc.
 Carnegie Office Park, Building 6, Pittsburgh, PA 15106 USA
  
 The following legend is applicable only to US Government
 contracts under FAR:
  
                    RESTRICTED RIGHTS LEGEND
  
 Use, reproduction and disclosure by the US Government is subject
 to restrictions as set forth in subparagraph (c) of the
 Commercial Computer Software - Restricted Rights clause at FAR
 52.227-19.
  
 Gaussian, Inc.
 Carnegie Office Park, Building 6, Pittsburgh, PA 15106 USA
  
  
 ---------------------------------------------------------------
 Warning -- This program may not be used in any manner that
 competes with the business of Gaussian, Inc. or will provide
 assistance to any competitor of Gaussian, Inc.  The licensee
 of this program is prohibited from giving any competitor of
 Gaussian, Inc. access to this program.  By using this program,
 the user acknowledges that Gaussian, Inc. is engaged in the
 business of creating and licensing software in the field of
 computational chemistry and represents and warrants to the
 licensee that it is not a competitor of Gaussian, Inc. and that
 it will not use this program in any manner prohibited above.
 ---------------------------------------------------------------
  

 Cite this work as:
 Gaussian 03, Revision B.05,
 M. J. Frisch, G. W. Trucks, H. B. Schlegel, G. E. Scuseria, 
 M. A. Robb, J. R. Cheeseman, J. A. Montgomery, Jr., T. Vreven, 
 K. N. Kudin, J. C. Burant, J. M. Millam, S. S. Iyengar, J. Tomasi, 
 V. Barone, B. Mennucci, M. Cossi, G. Scalmani, N. Rega, 
 G. A. Petersson, H. Nakatsuji, M. Hada, M. Ehara, K. Toyota, 
 R. Fukuda, J. Hasegawa, M. Ishida, T. Nakajima, Y. Honda, O. Kitao, 
 H. Nakai, M. Klene, X. Li, J. E. Knox, H. P. Hratchian, J. B. Cross, 
 C. Adamo, J. Jaramillo, R. Gomperts, R. E. Stratmann, O. Yazyev, 
 A. J. Austin, R. Cammi, C. Pomelli, J. W. Ochterski, P. Y. Ayala, 
 K. Morokuma, G. A. Voth, P. Salvador, J. J. Dannenberg, 
 V. G. Zakrzewski, S. Dapprich, A. D. Daniels, M. C. Strain, 
 O. Farkas, D. K. Malick, A. D. Rabuck, K. Raghavachari, 
 J. B. Foresman, J. V. Ortiz, Q. Cui, A. G. Baboul, S. Clifford, 
 J. Cioslowski, B. B. Stefanov, G. Liu, A. Liashenko, P. Piskorz, 
 I. Komaromi, R. L. Martin, D. J. Fox, T. Keith, M. A. Al-Laham, 
 C. Y. Peng, A. Nanayakkara, M. Challacombe, P. M. W. Gill, 
 B. Johnson, W. Chen, M. W. Wong, C. Gonzalez, and J. A. Pople, 
 Gaussian, Inc., Pittsburgh PA, 2003.
 
 *************************************************
 Gaussian 03:  x86_64-Linux-G03RevB.05  8-Nov-2003
                     9-Nov-2007 
 *************************************************
 %nprocshared=2
 Will use up to    2 processors via shared memory.
 %mem=1GB
 ----------------------------------------------------
 #b3lyp/6-31+g* scf=tight nosymm punch=mo iop(3/33=1)
 ----------------------------------------------------
 1/38=1/1;
 2/15=1,17=6,18=5,40=1/2;
 3/5=1,6=6,7=11,11=2,16=1,25=1,30=1,33=1,74=-5/1,2,3;
 4//1;
 5/5=2,32=2,38=5/2;
 6/7=2,8=2,9=2,10=2,28=1/1;
 99/5=1,9=1,10=32/99;
 -------
 9_11_07
 -------
 Symbolic Z-matrix:
 Charge =  0 Multiplicity = 1
 C                     0.67275   0.        5. 
 C                    -0.67275   0.        5. 
 H                     1.24262   0.4674    5.80957 
 H                     1.24262  -0.4674    4.19043 
 H                    -1.24262   0.4674    5.80957 
 H                    -1.24262  -0.4674    4.19043 
 
                          Input orientation:                          
 ---------------------------------------------------------------------
 Center     Atomic     Atomic              Coordinates (Angstroms)
 Number     Number      Type              X           Y           Z
 ---------------------------------------------------------------------
    1          6             0        0.672749    0.000000    5.000000
    2          6             0       -0.672749    0.000000    5.000000
    3          1             0        1.242623    0.467403    5.809566
    4          1             0        1.242623   -0.467403    4.190434
    5          1             0       -1.242623    0.467403    5.809566
    6          1             0       -1.242623   -0.467403    4.190434
 ---------------------------------------------------------------------
                    Distance matrix (angstroms):
                    1          2          3          4          5
     1  C    0.000000
     2  C    1.345498   0.000000
     3  H    1.094815   2.131317   0.000000
     4  H    1.094815   2.131317   1.869612   0.000000
     5  H    2.131317   1.094815   2.485246   3.109968   0.000000
     6  H    2.131317   1.094815   3.109968   2.485246   1.869612
                    6
     6  H    0.000000
 Symmetry turned off by external request.
 Stoichiometry    C2H4
 Framework group  D2H[C2"(C.C),SG(H4)]
 Deg. of freedom     3
 Full point group                 D2H     NOp   8
 Rotational constants (GHZ):    143.4593548     29.5768688     24.5213310
 Standard basis: 6-31+G(d) (6D, 7F)
                         Coordinates in L301:                         
 ---------------------------------------------------------------------
 Center     Atomic     Atomic              Coordinates (Angstroms)
 Number     Number      Type              X           Y           Z
 ---------------------------------------------------------------------
    1          6             0        0.672749    0.000000    5.000000
    2          6             0       -0.672749    0.000000    5.000000
    3          1             0        1.242623    0.467403    5.809566
    4          1             0        1.242623   -0.467403    4.190434
    5          1             0       -1.242623    0.467403    5.809566
    6          1             0       -1.242623   -0.467403    4.190434
 ---------------------------------------------------------------------
 LdAtmC:  AtmChg=     6.000000     6.000000     1.000000     1.000000     1.000000
 LdAtmC:  AtmChg=     1.000000
 AtZEff=  -3.6000000  -3.6000000  -1.0000000  -1.0000000  -1.0000000  -1.0000000
 Integral buffers will be    131072 words long.
 Raffenetti 2 integral format.
 Two-electron integral symmetry is turned off.
    46 basis functions,    80 primitive gaussians,    46 cartesian basis functions
     8 alpha electrons        8 beta electrons
       nuclear repulsion energy        33.0501001101 Hartrees.
 NAtoms=    6 NActive=    6 NUniq=    6 SFac= 1.00D+00 NAtFMM=   60 Big=F
 NPDir=0 NMtPBC=     1 NCelOv=     1 NCel=       1 NClECP=     1 NCelD=      1
         NCelK=      1 NCelE2=     1 NClLst=     1 CellRange=     0.0.
 One-electron integrals computed using PRISM.
 Entering OneElI...
 Calculate overlap and kinetic energy integrals
    NBasis =  46  MinDer = 0  MaxDer = 0
 Requested accuracy = 0.1000D-12
 PrsmSu:  NPrtUS=   1 ThrOK=F
 PRISM was handed   134176257 working-precision words and   171 shell-pairs
 *** Overlap *** 
                1             2             3             4             5
      1  0.100000D+01
      2  0.219059D+00  0.100000D+01
      3  0.000000D+00  0.000000D+00  0.100000D+01
      4  0.000000D+00  0.000000D+00  0.000000D+00  0.100000D+01
      5  0.000000D+00  0.000000D+00  0.000000D+00  0.000000D+00  0.100000D+01
      6  0.184261D+00  0.812273D+00  0.000000D+00  0.000000D+00  0.000000D+00
      7  0.000000D+00  0.000000D+00  0.569754D+00  0.000000D+00  0.000000D+00
      8  0.000000D+00  0.000000D+00  0.000000D+00  0.569754D+00  0.000000D+00
      9  0.000000D+00  0.000000D+00  0.000000D+00  0.000000D+00  0.569754D+00
     10  0.697718D-01  0.402091D+00  0.000000D+00  0.000000D+00  0.000000D+00
     11  0.000000D+00  0.000000D+00  0.164679D+00  0.000000D+00  0.000000D+00
     12  0.000000D+00  0.000000D+00  0.000000D+00  0.164679D+00  0.000000D+00
     13  0.000000D+00  0.000000D+00  0.000000D+00  0.000000D+00  0.164679D+00
     14  0.791027D-01  0.710235D+00  0.000000D+00  0.000000D+00  0.000000D+00
     15  0.791027D-01  0.710235D+00  0.000000D+00  0.000000D+00  0.000000D+00
     16  0.791027D-01  0.710235D+00  0.000000D+00  0.000000D+00  0.000000D+00
     17  0.000000D+00  0.000000D+00  0.000000D+00  0.000000D+00  0.000000D+00
     18  0.000000D+00  0.000000D+00  0.000000D+00  0.000000D+00  0.000000D+00
     19  0.000000D+00  0.000000D+00  0.000000D+00  0.000000D+00  0.000000D+00
     20  0.481399D-05  0.194904D-01 -0.426713D-01  0.000000D+00  0.000000D+00
     21  0.194904D-01  0.203366D+00 -0.282219D+00  0.000000D+00  0.000000D+00
     22  0.426713D-01  0.282219D+00 -0.333594D+00  0.000000D+00  0.000000D+00
     23  0.000000D+00  0.000000D+00  0.000000D+00  0.115814D+00  0.000000D+00
     24  0.000000D+00  0.000000D+00  0.000000D+00  0.000000D+00  0.115814D+00
     25  0.643636D-01  0.359351D+00 -0.253511D+00  0.000000D+00  0.000000D+00
     26  0.129620D+00  0.562375D+00 -0.170740D+00  0.000000D+00  0.000000D+00
     27  0.000000D+00  0.000000D+00  0.000000D+00  0.242739D+00  0.000000D+00
     28  0.000000D+00  0.000000D+00  0.000000D+00  0.000000D+00  0.242739D+00
     29  0.527094D-01  0.309785D+00 -0.673317D-01  0.000000D+00  0.000000D+00
     30  0.555561D-01  0.303665D+00  0.598522D-01  0.000000D+00  0.000000D+00
     31  0.000000D+00  0.000000D+00  0.000000D+00  0.126532D+00  0.000000D+00
     32  0.000000D+00  0.000000D+00  0.000000D+00  0.000000D+00  0.126532D+00
     33  0.526767D-01  0.334402D+00 -0.413876D+00  0.000000D+00  0.000000D+00
     34  0.113280D-02  0.928256D-01 -0.142160D+00  0.000000D+00  0.000000D+00
     35  0.113280D-02  0.928256D-01 -0.142160D+00  0.000000D+00  0.000000D+00
     36  0.000000D+00  0.000000D+00  0.000000D+00  0.183392D+00  0.000000D+00
     37  0.000000D+00  0.000000D+00  0.000000D+00  0.000000D+00  0.183392D+00
     38  0.000000D+00  0.000000D+00  0.000000D+00  0.000000D+00  0.000000D+00
     39  0.320525D-01  0.270664D+00  0.190665D+00  0.156381D+00  0.270860D+00
     40  0.916644D-01  0.473962D+00  0.138279D+00  0.113415D+00  0.196441D+00
     41  0.320525D-01  0.270664D+00  0.190665D+00 -0.156381D+00 -0.270860D+00
     42  0.916644D-01  0.473962D+00  0.138279D+00 -0.113415D+00 -0.196441D+00
     43  0.430532D-04  0.789566D-02 -0.152645D-01  0.372496D-02  0.645182D-02
     44  0.142782D-01  0.109874D+00 -0.102096D+00  0.249143D-01  0.431529D-01
     45  0.430532D-04  0.789566D-02 -0.152645D-01 -0.372496D-02 -0.645182D-02
     46  0.142782D-01  0.109874D+00 -0.102096D+00 -0.249143D-01 -0.431529D-01
                6             7             8             9            10
      6  0.100000D+01
      7  0.000000D+00  0.100000D+01
      8  0.000000D+00  0.000000D+00  0.100000D+01
      9  0.000000D+00  0.000000D+00  0.000000D+00  0.100000D+01
     10  0.727666D+00  0.000000D+00  0.000000D+00  0.000000D+00  0.100000D+01
     11  0.000000D+00  0.588690D+00  0.000000D+00  0.000000D+00  0.000000D+00
     12  0.000000D+00  0.000000D+00  0.588690D+00  0.000000D+00  0.000000D+00
     13  0.000000D+00  0.000000D+00  0.000000D+00  0.588690D+00  0.000000D+00
     14  0.629936D+00  0.000000D+00  0.000000D+00  0.000000D+00  0.323540D+00
     15  0.629936D+00  0.000000D+00  0.000000D+00  0.000000D+00  0.323540D+00
     16  0.629936D+00  0.000000D+00  0.000000D+00  0.000000D+00  0.323540D+00
     17  0.000000D+00  0.000000D+00  0.000000D+00  0.000000D+00  0.000000D+00
     18  0.000000D+00  0.000000D+00  0.000000D+00  0.000000D+00  0.000000D+00
     19  0.000000D+00  0.000000D+00  0.000000D+00  0.000000D+00  0.000000D+00
     20  0.643636D-01 -0.129620D+00  0.000000D+00  0.000000D+00  0.527094D-01
     21  0.359351D+00 -0.562375D+00  0.000000D+00  0.000000D+00  0.309785D+00
     22  0.253511D+00 -0.170740D+00  0.000000D+00  0.000000D+00  0.673317D-01
     23  0.000000D+00  0.000000D+00  0.242739D+00  0.000000D+00  0.000000D+00
     24  0.000000D+00  0.000000D+00  0.000000D+00  0.242739D+00  0.000000D+00
     25  0.579631D+00 -0.605354D+00  0.000000D+00  0.000000D+00  0.581168D+00
     26  0.605354D+00 -0.525884D-01  0.000000D+00  0.000000D+00  0.250193D+00
     27  0.000000D+00  0.000000D+00  0.579631D+00  0.000000D+00  0.000000D+00
     28  0.000000D+00  0.000000D+00  0.000000D+00  0.579631D+00  0.000000D+00
     29  0.581168D+00 -0.250193D+00  0.000000D+00  0.000000D+00  0.867984D+00
     30  0.491037D+00  0.258780D+00  0.000000D+00  0.000000D+00  0.461882D+00
     31  0.000000D+00  0.000000D+00  0.470171D+00  0.000000D+00  0.000000D+00
     32  0.000000D+00  0.000000D+00  0.000000D+00  0.470171D+00  0.000000D+00
     33  0.353148D+00 -0.422973D+00  0.000000D+00  0.000000D+00  0.254635D+00
     34  0.255918D+00 -0.441451D+00  0.000000D+00  0.000000D+00  0.247363D+00
     35  0.255918D+00 -0.441451D+00  0.000000D+00  0.000000D+00  0.247363D+00
     36  0.000000D+00  0.000000D+00  0.161252D+00  0.000000D+00  0.000000D+00
     37  0.000000D+00  0.000000D+00  0.000000D+00  0.161252D+00  0.000000D+00
     38  0.000000D+00  0.000000D+00  0.000000D+00  0.000000D+00  0.000000D+00
     39  0.375116D+00  0.267879D+00  0.219711D+00  0.380550D+00  0.258482D+00
     40  0.702351D+00  0.303675D+00  0.249070D+00  0.431402D+00  0.640357D+00
     41  0.375116D+00  0.267879D+00 -0.219711D+00 -0.380550D+00  0.258482D+00
     42  0.702351D+00  0.303675D+00 -0.249070D+00 -0.431402D+00  0.640357D+00
     43  0.740737D-01 -0.176933D+00  0.431766D-01  0.747841D-01  0.158045D+00
     44  0.262382D+00 -0.381297D+00  0.930469D-01  0.161162D+00  0.424412D+00
     45  0.740737D-01 -0.176933D+00 -0.431766D-01 -0.747841D-01  0.158045D+00
     46  0.262382D+00 -0.381297D+00 -0.930469D-01 -0.161162D+00  0.424412D+00
               11            12            13            14            15
     11  0.100000D+01
     12  0.000000D+00  0.100000D+01
     13  0.000000D+00  0.000000D+00  0.100000D+01
     14  0.000000D+00  0.000000D+00  0.000000D+00  0.100000D+01
     15  0.000000D+00  0.000000D+00  0.000000D+00  0.333333D+00  0.100000D+01
     16  0.000000D+00  0.000000D+00  0.000000D+00  0.333333D+00  0.333333D+00
     17  0.000000D+00  0.000000D+00  0.000000D+00  0.000000D+00  0.000000D+00
     18  0.000000D+00  0.000000D+00  0.000000D+00  0.000000D+00  0.000000D+00
     19  0.000000D+00  0.000000D+00  0.000000D+00  0.000000D+00  0.000000D+00
     20 -0.555561D-01  0.000000D+00  0.000000D+00  0.526767D-01  0.113280D-02
     21 -0.303665D+00  0.000000D+00  0.000000D+00  0.334402D+00  0.928256D-01
     22  0.598522D-01  0.000000D+00  0.000000D+00  0.413876D+00  0.142160D+00
     23  0.000000D+00  0.126532D+00  0.000000D+00  0.000000D+00  0.000000D+00
     24  0.000000D+00  0.000000D+00  0.126532D+00  0.000000D+00  0.000000D+00
     25 -0.491037D+00  0.000000D+00  0.000000D+00  0.353148D+00  0.255918D+00
     26  0.258780D+00  0.000000D+00  0.000000D+00  0.422973D+00  0.441451D+00
     27  0.000000D+00  0.470171D+00  0.000000D+00  0.000000D+00  0.000000D+00
     28  0.000000D+00  0.000000D+00  0.470171D+00  0.000000D+00  0.000000D+00
     29 -0.461882D+00  0.000000D+00  0.000000D+00  0.254635D+00  0.247363D+00
     30  0.622202D+00  0.000000D+00  0.000000D+00  0.229601D+00  0.249594D+00
     31  0.000000D+00  0.867984D+00  0.000000D+00  0.000000D+00  0.000000D+00
     32  0.000000D+00  0.000000D+00  0.867984D+00  0.000000D+00  0.000000D+00
     33 -0.229601D+00  0.000000D+00  0.000000D+00  0.487216D+00  0.154963D+00
     34 -0.249594D+00  0.000000D+00  0.000000D+00  0.154963D+00  0.753228D-01
     35 -0.249594D+00  0.000000D+00  0.000000D+00  0.154963D+00  0.251076D-01
     36  0.000000D+00  0.236690D-01  0.000000D+00  0.000000D+00  0.000000D+00
     37  0.000000D+00  0.000000D+00  0.236690D-01  0.000000D+00  0.000000D+00
     38  0.000000D+00  0.000000D+00  0.000000D+00  0.000000D+00  0.000000D+00
     39  0.109596D+00  0.898888D-01  0.155692D+00  0.207129D+00  0.177310D+00
     40  0.226998D+00  0.186181D+00  0.322475D+00  0.371459D+00  0.364280D+00
     41  0.109596D+00 -0.898888D-01 -0.155692D+00  0.207129D+00  0.177310D+00
     42  0.226998D+00 -0.186181D+00 -0.322475D+00  0.371459D+00  0.364280D+00
     43 -0.225200D+00  0.549549D-01  0.951847D-01  0.137730D-01  0.234179D-02
     44 -0.505665D+00  0.123396D+00  0.213728D+00  0.120267D+00  0.733448D-01
     45 -0.225200D+00 -0.549549D-01 -0.951847D-01  0.137730D-01  0.234179D-02
     46 -0.505665D+00 -0.123396D+00 -0.213728D+00  0.120267D+00  0.733448D-01
               16            17            18            19            20
     16  0.100000D+01
     17  0.000000D+00  0.100000D+01
     18  0.000000D+00  0.000000D+00  0.100000D+01
     19  0.000000D+00  0.000000D+00  0.000000D+00  0.100000D+01
     20  0.113280D-02  0.000000D+00  0.000000D+00  0.000000D+00  0.100000D+01
     21  0.928256D-01  0.000000D+00  0.000000D+00  0.000000D+00  0.219059D+00
     22  0.142160D+00  0.000000D+00  0.000000D+00  0.000000D+00  0.000000D+00
     23  0.000000D+00 -0.183392D+00  0.000000D+00  0.000000D+00  0.000000D+00
     24  0.000000D+00  0.000000D+00 -0.183392D+00  0.000000D+00  0.000000D+00
     25  0.255918D+00  0.000000D+00  0.000000D+00  0.000000D+00  0.184261D+00
     26  0.441451D+00  0.000000D+00  0.000000D+00  0.000000D+00  0.000000D+00
     27  0.000000D+00 -0.161252D+00  0.000000D+00  0.000000D+00  0.000000D+00
     28  0.000000D+00  0.000000D+00 -0.161252D+00  0.000000D+00  0.000000D+00
     29  0.247363D+00  0.000000D+00  0.000000D+00  0.000000D+00  0.697718D-01
     30  0.249594D+00  0.000000D+00  0.000000D+00  0.000000D+00  0.000000D+00
     31  0.000000D+00 -0.236690D-01  0.000000D+00  0.000000D+00  0.000000D+00
     32  0.000000D+00  0.000000D+00 -0.236690D-01  0.000000D+00  0.000000D+00
     33  0.154963D+00  0.000000D+00  0.000000D+00  0.000000D+00  0.791027D-01
     34  0.251076D-01  0.000000D+00  0.000000D+00  0.000000D+00  0.791027D-01
     35  0.753228D-01  0.000000D+00  0.000000D+00  0.000000D+00  0.791027D-01
     36  0.000000D+00 -0.314243D+00  0.000000D+00  0.000000D+00  0.000000D+00
     37  0.000000D+00  0.000000D+00 -0.314243D+00  0.000000D+00  0.000000D+00
     38  0.000000D+00  0.000000D+00  0.000000D+00  0.753228D-01  0.000000D+00
     39  0.299888D+00  0.129429D+00  0.224177D+00  0.183867D+00  0.430532D-04
     40  0.393793D+00  0.311627D-01  0.539753D-01  0.442698D-01  0.142782D-01
     41  0.299888D+00 -0.129429D+00 -0.224177D+00  0.183867D+00  0.430532D-04
     42  0.393793D+00 -0.311627D-01 -0.539753D-01  0.442698D-01  0.142782D-01
     43  0.378944D-02 -0.513752D-02 -0.889846D-02  0.217147D-02  0.320525D-01
     44  0.792871D-01 -0.210884D-01 -0.365262D-01  0.891338D-02  0.916644D-01
     45  0.378944D-02  0.513752D-02  0.889846D-02  0.217147D-02  0.320525D-01
     46  0.792871D-01  0.210884D-01  0.365262D-01  0.891338D-02  0.916644D-01
               21            22            23            24            25
     21  0.100000D+01
     22  0.000000D+00  0.100000D+01
     23  0.000000D+00  0.000000D+00  0.100000D+01
     24  0.000000D+00  0.000000D+00  0.000000D+00  0.100000D+01
     25  0.812273D+00  0.000000D+00  0.000000D+00  0.000000D+00  0.100000D+01
     26  0.000000D+00  0.569754D+00  0.000000D+00  0.000000D+00  0.000000D+00
     27  0.000000D+00  0.000000D+00  0.569754D+00  0.000000D+00  0.000000D+00
     28  0.000000D+00  0.000000D+00  0.000000D+00  0.569754D+00  0.000000D+00
     29  0.402091D+00  0.000000D+00  0.000000D+00  0.000000D+00  0.727666D+00
     30  0.000000D+00  0.164679D+00  0.000000D+00  0.000000D+00  0.000000D+00
     31  0.000000D+00  0.000000D+00  0.164679D+00  0.000000D+00  0.000000D+00
     32  0.000000D+00  0.000000D+00  0.000000D+00  0.164679D+00  0.000000D+00
     33  0.710235D+00  0.000000D+00  0.000000D+00  0.000000D+00  0.629936D+00
     34  0.710235D+00  0.000000D+00  0.000000D+00  0.000000D+00  0.629936D+00
     35  0.710235D+00  0.000000D+00  0.000000D+00  0.000000D+00  0.629936D+00
     36  0.000000D+00  0.000000D+00  0.000000D+00  0.000000D+00  0.000000D+00
     37  0.000000D+00  0.000000D+00  0.000000D+00  0.000000D+00  0.000000D+00
     38  0.000000D+00  0.000000D+00  0.000000D+00  0.000000D+00  0.000000D+00
     39  0.789566D-02  0.152645D-01  0.372496D-02  0.645182D-02  0.740737D-01
     40  0.109874D+00  0.102096D+00  0.249143D-01  0.431529D-01  0.262382D+00
     41  0.789566D-02  0.152645D-01 -0.372496D-02 -0.645182D-02  0.740737D-01
     42  0.109874D+00  0.102096D+00 -0.249143D-01 -0.431529D-01  0.262382D+00
     43  0.270664D+00 -0.190665D+00  0.156381D+00  0.270860D+00  0.375116D+00
     44  0.473962D+00 -0.138279D+00  0.113415D+00  0.196441D+00  0.702351D+00
     45  0.270664D+00 -0.190665D+00 -0.156381D+00 -0.270860D+00  0.375116D+00
     46  0.473962D+00 -0.138279D+00 -0.113415D+00 -0.196441D+00  0.702351D+00
               26            27            28            29            30
     26  0.100000D+01
     27  0.000000D+00  0.100000D+01
     28  0.000000D+00  0.000000D+00  0.100000D+01
     29  0.000000D+00  0.000000D+00  0.000000D+00  0.100000D+01
     30  0.588690D+00  0.000000D+00  0.000000D+00  0.000000D+00  0.100000D+01
     31  0.000000D+00  0.588690D+00  0.000000D+00  0.000000D+00  0.000000D+00
     32  0.000000D+00  0.000000D+00  0.588690D+00  0.000000D+00  0.000000D+00
     33  0.000000D+00  0.000000D+00  0.000000D+00  0.323540D+00  0.000000D+00
     34  0.000000D+00  0.000000D+00  0.000000D+00  0.323540D+00  0.000000D+00
     35  0.000000D+00  0.000000D+00  0.000000D+00  0.323540D+00  0.000000D+00
     36  0.000000D+00  0.000000D+00  0.000000D+00  0.000000D+00  0.000000D+00
     37  0.000000D+00  0.000000D+00  0.000000D+00  0.000000D+00  0.000000D+00
     38  0.000000D+00  0.000000D+00  0.000000D+00  0.000000D+00  0.000000D+00
     39  0.176933D+00  0.431766D-01  0.747841D-01  0.158045D+00  0.225200D+00
     40  0.381297D+00  0.930469D-01  0.161162D+00  0.424412D+00  0.505665D+00
     41  0.176933D+00 -0.431766D-01 -0.747841D-01  0.158045D+00  0.225200D+00
     42  0.381297D+00 -0.930469D-01 -0.161162D+00  0.424412D+00  0.505665D+00
     43 -0.267879D+00  0.219711D+00  0.380550D+00  0.258482D+00 -0.109596D+00
     44 -0.303675D+00  0.249070D+00  0.431402D+00  0.640357D+00 -0.226998D+00
     45 -0.267879D+00 -0.219711D+00 -0.380550D+00  0.258482D+00 -0.109596D+00
     46 -0.303675D+00 -0.249070D+00 -0.431402D+00  0.640357D+00 -0.226998D+00
               31            32            33            34            35
     31  0.100000D+01
     32  0.000000D+00  0.100000D+01
     33  0.000000D+00  0.000000D+00  0.100000D+01
     34  0.000000D+00  0.000000D+00  0.333333D+00  0.100000D+01
     35  0.000000D+00  0.000000D+00  0.333333D+00  0.333333D+00  0.100000D+01
     36  0.000000D+00  0.000000D+00  0.000000D+00  0.000000D+00  0.000000D+00
     37  0.000000D+00  0.000000D+00  0.000000D+00  0.000000D+00  0.000000D+00
     38  0.000000D+00  0.000000D+00  0.000000D+00  0.000000D+00  0.000000D+00
     39  0.549549D-01  0.951847D-01  0.137730D-01  0.234179D-02  0.378944D-02
     40  0.123396D+00  0.213728D+00  0.120267D+00  0.733448D-01  0.792871D-01
     41 -0.549549D-01 -0.951847D-01  0.137730D-01  0.234179D-02  0.378944D-02
     42 -0.123396D+00 -0.213728D+00  0.120267D+00  0.733448D-01  0.792871D-01
     43  0.898888D-01  0.155692D+00  0.207129D+00  0.177310D+00  0.299888D+00
     44  0.186181D+00  0.322475D+00  0.371459D+00  0.364280D+00  0.393793D+00
     45 -0.898888D-01 -0.155692D+00  0.207129D+00  0.177310D+00  0.299888D+00
     46 -0.186181D+00 -0.322475D+00  0.371459D+00  0.364280D+00  0.393793D+00
               36            37            38            39            40
     36  0.100000D+01
     37  0.000000D+00  0.100000D+01
     38  0.000000D+00  0.000000D+00  0.100000D+01
     39  0.513752D-02  0.889846D-02  0.217147D-02  0.100000D+01
     40  0.210884D-01  0.365262D-01  0.891338D-02  0.658292D+00  0.100000D+01
     41 -0.513752D-02 -0.889846D-02  0.217147D-02  0.125798D-01  0.128011D+00
     42 -0.210884D-01 -0.365262D-01  0.891338D-02  0.128011D+00  0.365469D+00
     43 -0.129429D+00 -0.224177D+00  0.183867D+00  0.571644D-03  0.366357D-01
     44 -0.311627D-01 -0.539753D-01  0.442698D-01  0.366357D-01  0.168873D+00
     45  0.129429D+00  0.224177D+00  0.183867D+00  0.104764D-04  0.720594D-02
     46  0.311627D-01  0.539753D-01  0.442698D-01  0.720594D-02  0.617177D-01
               41            42            43            44            45
     41  0.100000D+01
     42  0.658292D+00  0.100000D+01
     43  0.104764D-04  0.720594D-02  0.100000D+01
     44  0.720594D-02  0.617177D-01  0.658292D+00  0.100000D+01
     45  0.571644D-03  0.366357D-01  0.125798D-01  0.128011D+00  0.100000D+01
     46  0.366357D-01  0.168873D+00  0.128011D+00  0.365469D+00  0.658292D+00
               46
     46  0.100000D+01
 *** Kinetic Energy *** 
                1             2             3             4             5
      1  0.162076D+02
      2 -0.124757D+01  0.932246D+00
      3  0.000000D+00  0.000000D+00  0.217833D+01
      4  0.000000D+00  0.000000D+00  0.000000D+00  0.217833D+01
      5  0.000000D+00  0.000000D+00  0.000000D+00  0.000000D+00  0.217833D+01
      6  0.899505D-01  0.306718D+00  0.000000D+00  0.000000D+00  0.000000D+00
      7  0.000000D+00  0.000000D+00  0.376673D+00  0.000000D+00  0.000000D+00
      8  0.000000D+00  0.000000D+00  0.000000D+00  0.376673D+00  0.000000D+00
      9  0.000000D+00  0.000000D+00  0.000000D+00  0.000000D+00  0.376673D+00
     10  0.907972D-02  0.486595D-01  0.000000D+00  0.000000D+00  0.000000D+00
     11  0.000000D+00  0.000000D+00  0.335613D-01  0.000000D+00  0.000000D+00
     12  0.000000D+00  0.000000D+00  0.000000D+00  0.335613D-01  0.000000D+00
     13  0.000000D+00  0.000000D+00  0.000000D+00  0.000000D+00  0.335613D-01
     14 -0.524817D+00  0.520042D+00  0.000000D+00  0.000000D+00  0.000000D+00
     15 -0.524817D+00  0.520042D+00  0.000000D+00  0.000000D+00  0.000000D+00
     16 -0.524817D+00  0.520042D+00  0.000000D+00  0.000000D+00  0.000000D+00
     17  0.000000D+00  0.000000D+00  0.000000D+00  0.000000D+00  0.000000D+00
     18  0.000000D+00  0.000000D+00  0.000000D+00  0.000000D+00  0.000000D+00
     19  0.000000D+00  0.000000D+00  0.000000D+00  0.000000D+00  0.000000D+00
     20 -0.135413D-03 -0.305582D-01  0.301757D-01  0.000000D+00  0.000000D+00
     21 -0.305582D-01 -0.692999D-02 -0.114122D+00  0.000000D+00  0.000000D+00
     22 -0.301757D-01  0.114122D+00 -0.341734D+00  0.000000D+00  0.000000D+00
     23  0.000000D+00  0.000000D+00  0.000000D+00  0.325781D-01  0.000000D+00
     24  0.000000D+00  0.000000D+00  0.000000D+00  0.000000D+00  0.325781D-01
     25  0.938145D-02  0.623760D-01 -0.109871D+00  0.000000D+00  0.000000D+00
     26  0.610677D-01  0.239367D+00 -0.183669D+00  0.000000D+00  0.000000D+00
     27  0.000000D+00  0.000000D+00  0.000000D+00  0.105202D+00  0.000000D+00
     28  0.000000D+00  0.000000D+00  0.000000D+00  0.000000D+00  0.105202D+00
     29  0.557685D-02  0.309754D-01 -0.122746D-01  0.000000D+00  0.000000D+00
     30  0.106981D-01  0.548491D-01  0.547132D-02  0.000000D+00  0.000000D+00
     31  0.000000D+00  0.000000D+00  0.000000D+00  0.230668D-01  0.000000D+00
     32  0.000000D+00  0.000000D+00  0.000000D+00  0.000000D+00  0.230668D-01
     33 -0.759879D-01  0.185459D+00 -0.484409D+00  0.000000D+00  0.000000D+00
     34 -0.120047D-01 -0.702841D-01  0.455959D-01  0.000000D+00  0.000000D+00
     35 -0.120047D-01 -0.702841D-01  0.455959D-01  0.000000D+00  0.000000D+00
     36  0.000000D+00  0.000000D+00  0.000000D+00  0.142615D+00  0.000000D+00
     37  0.000000D+00  0.000000D+00  0.000000D+00  0.000000D+00  0.142615D+00
     38  0.000000D+00  0.000000D+00  0.000000D+00  0.000000D+00  0.000000D+00
     39 -0.348075D-01  0.397959D-01  0.121108D+00  0.993314D-01  0.172047D+00
     40  0.237890D-01  0.113380D+00  0.687448D-01  0.563836D-01  0.976593D-01
     41 -0.348075D-01  0.397959D-01  0.121108D+00 -0.993314D-01 -0.172047D+00
     42  0.237890D-01  0.113380D+00  0.687448D-01 -0.563836D-01 -0.976593D-01
     43 -0.349040D-03 -0.153574D-01  0.222209D-01 -0.542251D-02 -0.939207D-02
     44 -0.456069D-02 -0.130735D-01 -0.113744D-01  0.277566D-02  0.480759D-02
     45 -0.349040D-03 -0.153574D-01  0.222209D-01  0.542251D-02  0.939207D-02
     46 -0.456069D-02 -0.130735D-01 -0.113744D-01 -0.277566D-02 -0.480759D-02
                6             7             8             9            10
      6  0.253072D+00
      7  0.000000D+00  0.421786D+00
      8  0.000000D+00  0.000000D+00  0.421786D+00
      9  0.000000D+00  0.000000D+00  0.000000D+00  0.421786D+00
     10  0.759086D-01  0.000000D+00  0.000000D+00  0.000000D+00  0.657000D-01
     11  0.000000D+00  0.102352D+00  0.000000D+00  0.000000D+00  0.000000D+00
     12  0.000000D+00  0.000000D+00  0.102352D+00  0.000000D+00  0.000000D+00
     13  0.000000D+00  0.000000D+00  0.000000D+00  0.102352D+00  0.000000D+00
     14  0.226288D+00  0.000000D+00  0.000000D+00  0.000000D+00  0.388353D-01
     15  0.226288D+00  0.000000D+00  0.000000D+00  0.000000D+00  0.388353D-01
     16  0.226288D+00  0.000000D+00  0.000000D+00  0.000000D+00  0.388353D-01
     17  0.000000D+00  0.000000D+00  0.000000D+00  0.000000D+00  0.000000D+00
     18  0.000000D+00  0.000000D+00  0.000000D+00  0.000000D+00  0.000000D+00
     19  0.000000D+00  0.000000D+00  0.000000D+00  0.000000D+00  0.000000D+00
     20  0.938145D-02 -0.610677D-01  0.000000D+00  0.000000D+00  0.557685D-02
     21  0.623760D-01 -0.239367D+00  0.000000D+00  0.000000D+00  0.309754D-01
     22  0.109871D+00 -0.183669D+00  0.000000D+00  0.000000D+00  0.122746D-01
     23  0.000000D+00  0.000000D+00  0.105202D+00  0.000000D+00  0.000000D+00
     24  0.000000D+00  0.000000D+00  0.000000D+00  0.105202D+00  0.000000D+00
     25  0.933559D-01 -0.199631D+00  0.000000D+00  0.000000D+00  0.515403D-01
     26  0.199631D+00 -0.124007D+00  0.000000D+00  0.000000D+00  0.395879D-01
     27  0.000000D+00  0.000000D+00  0.191148D+00  0.000000D+00  0.000000D+00
     28  0.000000D+00  0.000000D+00  0.000000D+00  0.191148D+00  0.000000D+00
     29  0.515403D-01 -0.395879D-01  0.000000D+00  0.000000D+00  0.516439D-01
     30  0.776965D-01  0.262452D-01  0.000000D+00  0.000000D+00  0.477118D-01
     31  0.000000D+00  0.000000D+00  0.743949D-01  0.000000D+00  0.000000D+00
     32  0.000000D+00  0.000000D+00  0.000000D+00  0.743949D-01  0.000000D+00
     33  0.981193D-01 -0.204141D+00  0.000000D+00  0.000000D+00  0.261278D-01
     34  0.276945D-01 -0.170788D+00  0.000000D+00  0.000000D+00  0.241761D-01
     35  0.276945D-01 -0.170788D+00  0.000000D+00  0.000000D+00  0.241761D-01
     36  0.000000D+00  0.000000D+00  0.116796D+00  0.000000D+00  0.000000D+00
     37  0.000000D+00  0.000000D+00  0.000000D+00  0.116796D+00  0.000000D+00
     38  0.000000D+00  0.000000D+00  0.000000D+00  0.000000D+00  0.000000D+00
     39  0.934992D-01  0.140040D+00  0.114859D+00  0.198941D+00  0.281911D-01
     40  0.132860D+00  0.107524D+00  0.881899D-01  0.152749D+00  0.596677D-01
     41  0.934992D-01  0.140040D+00 -0.114859D+00 -0.198941D+00  0.281911D-01
     42  0.132860D+00  0.107524D+00 -0.881899D-01 -0.152749D+00  0.596677D-01
     43 -0.141416D-01 -0.138972D-01  0.339130D-02  0.587391D-02  0.108285D-01
     44  0.702830D-02 -0.730942D-01  0.178370D-01  0.308946D-01  0.275201D-01
     45 -0.141416D-01 -0.138972D-01 -0.339130D-02 -0.587391D-02  0.108285D-01
     46  0.702830D-02 -0.730942D-01 -0.178370D-01 -0.308946D-01  0.275201D-01
               11            12            13            14            15
     11  0.109500D+00
     12  0.000000D+00  0.109500D+00
     13  0.000000D+00  0.000000D+00  0.109500D+00
     14  0.000000D+00  0.000000D+00  0.000000D+00  0.173333D+01
     15  0.000000D+00  0.000000D+00  0.000000D+00 -0.133333D+00  0.173333D+01
     16  0.000000D+00  0.000000D+00  0.000000D+00 -0.133333D+00 -0.133333D+00
     17  0.000000D+00  0.000000D+00  0.000000D+00  0.000000D+00  0.000000D+00
     18  0.000000D+00  0.000000D+00  0.000000D+00  0.000000D+00  0.000000D+00
     19  0.000000D+00  0.000000D+00  0.000000D+00  0.000000D+00  0.000000D+00
     20 -0.106981D-01  0.000000D+00  0.000000D+00 -0.759879D-01 -0.120047D-01
     21 -0.548491D-01  0.000000D+00  0.000000D+00  0.185459D+00 -0.702841D-01
     22  0.547132D-02  0.000000D+00  0.000000D+00  0.484409D+00 -0.455959D-01
     23  0.000000D+00  0.230668D-01  0.000000D+00  0.000000D+00  0.000000D+00
     24  0.000000D+00  0.000000D+00  0.230668D-01  0.000000D+00  0.000000D+00
     25 -0.776965D-01  0.000000D+00  0.000000D+00  0.981193D-01  0.276945D-01
     26  0.262452D-01  0.000000D+00  0.000000D+00  0.204141D+00  0.170788D+00
     27  0.000000D+00  0.743949D-01  0.000000D+00  0.000000D+00  0.000000D+00
     28  0.000000D+00  0.000000D+00  0.743949D-01  0.000000D+00  0.000000D+00
     29 -0.477118D-01  0.000000D+00  0.000000D+00  0.261278D-01  0.241761D-01
     30  0.535074D-01  0.000000D+00  0.000000D+00  0.403672D-01  0.451237D-01
     31  0.000000D+00  0.896616D-01  0.000000D+00  0.000000D+00  0.000000D+00
     32  0.000000D+00  0.000000D+00  0.896616D-01  0.000000D+00  0.000000D+00
     33 -0.403672D-01  0.000000D+00  0.000000D+00  0.727180D+00 -0.709162D-01
     34 -0.451237D-01  0.000000D+00  0.000000D+00 -0.709162D-01 -0.252666D-01
     35 -0.451237D-01  0.000000D+00  0.000000D+00 -0.709162D-01 -0.619851D-01
     36  0.000000D+00  0.635248D-02  0.000000D+00  0.000000D+00  0.000000D+00
     37  0.000000D+00  0.000000D+00  0.635248D-02  0.000000D+00  0.000000D+00
     38  0.000000D+00  0.000000D+00  0.000000D+00  0.000000D+00  0.000000D+00
     39  0.209881D-01  0.172141D-01  0.298158D-01  0.366389D-01 -0.315206D-02
     40  0.367895D-01  0.301743D-01  0.522634D-01  0.851469D-01  0.795087D-01
     41  0.209881D-01 -0.172141D-01 -0.298158D-01  0.366389D-01 -0.315206D-02
     42  0.367895D-01 -0.301743D-01 -0.522634D-01  0.851469D-01  0.795087D-01
     43 -0.339886D-01  0.829414D-02  0.143659D-01 -0.261710D-01 -0.706325D-02
     44 -0.676243D-01  0.165022D-01  0.285826D-01  0.111356D-02 -0.155475D-01
     45 -0.339886D-01 -0.829414D-02 -0.143659D-01 -0.261710D-01 -0.706325D-02
     46 -0.676243D-01 -0.165022D-01 -0.285826D-01  0.111356D-02 -0.155475D-01
               16            17            18            19            20
     16  0.173333D+01
     17  0.000000D+00  0.280000D+01
     18  0.000000D+00  0.000000D+00  0.280000D+01
     19  0.000000D+00  0.000000D+00  0.000000D+00  0.280000D+01
     20 -0.120047D-01  0.000000D+00  0.000000D+00  0.000000D+00  0.162076D+02
     21 -0.702841D-01  0.000000D+00  0.000000D+00  0.000000D+00 -0.124757D+01
     22 -0.455959D-01  0.000000D+00  0.000000D+00  0.000000D+00  0.000000D+00
     23  0.000000D+00 -0.142615D+00  0.000000D+00  0.000000D+00  0.000000D+00
     24  0.000000D+00  0.000000D+00 -0.142615D+00  0.000000D+00  0.000000D+00
     25  0.276945D-01  0.000000D+00  0.000000D+00  0.000000D+00  0.899505D-01
     26  0.170788D+00  0.000000D+00  0.000000D+00  0.000000D+00  0.000000D+00
     27  0.000000D+00 -0.116796D+00  0.000000D+00  0.000000D+00  0.000000D+00
     28  0.000000D+00  0.000000D+00 -0.116796D+00  0.000000D+00  0.000000D+00
     29  0.241761D-01  0.000000D+00  0.000000D+00  0.000000D+00  0.907972D-02
     30  0.451237D-01  0.000000D+00  0.000000D+00  0.000000D+00  0.000000D+00
     31  0.000000D+00 -0.635248D-02  0.000000D+00  0.000000D+00  0.000000D+00
     32  0.000000D+00  0.000000D+00 -0.635248D-02  0.000000D+00  0.000000D+00
     33 -0.709162D-01  0.000000D+00  0.000000D+00  0.000000D+00 -0.524817D+00
     34 -0.619851D-01  0.000000D+00  0.000000D+00  0.000000D+00 -0.524817D+00
     35 -0.252666D-01  0.000000D+00  0.000000D+00  0.000000D+00 -0.524817D+00
     36  0.000000D+00 -0.541434D+00  0.000000D+00  0.000000D+00  0.000000D+00
     37  0.000000D+00  0.000000D+00 -0.541434D+00  0.000000D+00  0.000000D+00
     38  0.000000D+00  0.000000D+00  0.000000D+00  0.550777D-01  0.000000D+00
     39  0.160417D+00  0.172711D+00  0.299144D+00  0.245354D+00 -0.349040D-03
     40  0.102686D+00  0.244726D-01  0.423877D-01  0.347658D-01 -0.456069D-02
     41  0.160417D+00 -0.172711D+00 -0.299144D+00  0.245354D+00 -0.349040D-03
     42  0.102686D+00 -0.244726D-01 -0.423877D-01  0.347658D-01 -0.456069D-02
     43 -0.948306D-02  0.858763D-02  0.148742D-01 -0.362971D-02 -0.348075D-01
     44 -0.134375D-01 -0.748798D-02 -0.129696D-01  0.316493D-02  0.237890D-01
     45 -0.948306D-02 -0.858763D-02 -0.148742D-01 -0.362971D-02 -0.348075D-01
     46 -0.134375D-01  0.748798D-02  0.129696D-01  0.316493D-02  0.237890D-01
               21            22            23            24            25
     21  0.932246D+00
     22  0.000000D+00  0.217833D+01
     23  0.000000D+00  0.000000D+00  0.217833D+01
     24  0.000000D+00  0.000000D+00  0.000000D+00  0.217833D+01
     25  0.306718D+00  0.000000D+00  0.000000D+00  0.000000D+00  0.253072D+00
     26  0.000000D+00  0.376673D+00  0.000000D+00  0.000000D+00  0.000000D+00
     27  0.000000D+00  0.000000D+00  0.376673D+00  0.000000D+00  0.000000D+00
     28  0.000000D+00  0.000000D+00  0.000000D+00  0.376673D+00  0.000000D+00
     29  0.486595D-01  0.000000D+00  0.000000D+00  0.000000D+00  0.759086D-01
     30  0.000000D+00  0.335613D-01  0.000000D+00  0.000000D+00  0.000000D+00
     31  0.000000D+00  0.000000D+00  0.335613D-01  0.000000D+00  0.000000D+00
     32  0.000000D+00  0.000000D+00  0.000000D+00  0.335613D-01  0.000000D+00
     33  0.520042D+00  0.000000D+00  0.000000D+00  0.000000D+00  0.226288D+00
     34  0.520042D+00  0.000000D+00  0.000000D+00  0.000000D+00  0.226288D+00
     35  0.520042D+00  0.000000D+00  0.000000D+00  0.000000D+00  0.226288D+00
     36  0.000000D+00  0.000000D+00  0.000000D+00  0.000000D+00  0.000000D+00
     37  0.000000D+00  0.000000D+00  0.000000D+00  0.000000D+00  0.000000D+00
     38  0.000000D+00  0.000000D+00  0.000000D+00  0.000000D+00  0.000000D+00
     39 -0.153574D-01 -0.222209D-01 -0.542251D-02 -0.939207D-02 -0.141416D-01
     40 -0.130735D-01  0.113744D-01  0.277566D-02  0.480759D-02  0.702830D-02
     41 -0.153574D-01 -0.222209D-01  0.542251D-02  0.939207D-02 -0.141416D-01
     42 -0.130735D-01  0.113744D-01 -0.277566D-02 -0.480759D-02  0.702830D-02
     43  0.397959D-01 -0.121108D+00  0.993314D-01  0.172047D+00  0.934992D-01
     44  0.113380D+00 -0.687448D-01  0.563836D-01  0.976593D-01  0.132860D+00
     45  0.397959D-01 -0.121108D+00 -0.993314D-01 -0.172047D+00  0.934992D-01
     46  0.113380D+00 -0.687448D-01 -0.563836D-01 -0.976593D-01  0.132860D+00
               26            27            28            29            30
     26  0.421786D+00
     27  0.000000D+00  0.421786D+00
     28  0.000000D+00  0.000000D+00  0.421786D+00
     29  0.000000D+00  0.000000D+00  0.000000D+00  0.657000D-01
     30  0.102352D+00  0.000000D+00  0.000000D+00  0.000000D+00  0.109500D+00
     31  0.000000D+00  0.102352D+00  0.000000D+00  0.000000D+00  0.000000D+00
     32  0.000000D+00  0.000000D+00  0.102352D+00  0.000000D+00  0.000000D+00
     33  0.000000D+00  0.000000D+00  0.000000D+00  0.388353D-01  0.000000D+00
     34  0.000000D+00  0.000000D+00  0.000000D+00  0.388353D-01  0.000000D+00
     35  0.000000D+00  0.000000D+00  0.000000D+00  0.388353D-01  0.000000D+00
     36  0.000000D+00  0.000000D+00  0.000000D+00  0.000000D+00  0.000000D+00
     37  0.000000D+00  0.000000D+00  0.000000D+00  0.000000D+00  0.000000D+00
     38  0.000000D+00  0.000000D+00  0.000000D+00  0.000000D+00  0.000000D+00
     39  0.138972D-01  0.339130D-02  0.587391D-02  0.108285D-01  0.339886D-01
     40  0.730942D-01  0.178370D-01  0.308946D-01  0.275201D-01  0.676243D-01
     41  0.138972D-01 -0.339130D-02 -0.587391D-02  0.108285D-01  0.339886D-01
     42  0.730942D-01 -0.178370D-01 -0.308946D-01  0.275201D-01  0.676243D-01
     43 -0.140040D+00  0.114859D+00  0.198941D+00  0.281911D-01 -0.209881D-01
     44 -0.107524D+00  0.881899D-01  0.152749D+00  0.596677D-01 -0.367895D-01
     45 -0.140040D+00 -0.114859D+00 -0.198941D+00  0.281911D-01 -0.209881D-01
     46 -0.107524D+00 -0.881899D-01 -0.152749D+00  0.596677D-01 -0.367895D-01
               31            32            33            34            35
     31  0.109500D+00
     32  0.000000D+00  0.109500D+00
     33  0.000000D+00  0.000000D+00  0.173333D+01
     34  0.000000D+00  0.000000D+00 -0.133333D+00  0.173333D+01
     35  0.000000D+00  0.000000D+00 -0.133333D+00 -0.133333D+00  0.173333D+01
     36  0.000000D+00  0.000000D+00  0.000000D+00  0.000000D+00  0.000000D+00
     37  0.000000D+00  0.000000D+00  0.000000D+00  0.000000D+00  0.000000D+00
     38  0.000000D+00  0.000000D+00  0.000000D+00  0.000000D+00  0.000000D+00
     39  0.829414D-02  0.143659D-01 -0.261710D-01 -0.706325D-02 -0.948306D-02
     40  0.165022D-01  0.285826D-01  0.111356D-02 -0.155475D-01 -0.134375D-01
     41 -0.829414D-02 -0.143659D-01 -0.261710D-01 -0.706325D-02 -0.948306D-02
     42 -0.165022D-01 -0.285826D-01  0.111356D-02 -0.155475D-01 -0.134375D-01
     43  0.172141D-01  0.298158D-01  0.366389D-01 -0.315206D-02  0.160417D+00
     44  0.301743D-01  0.522634D-01  0.851469D-01  0.795087D-01  0.102686D+00
     45 -0.172141D-01 -0.298158D-01  0.366389D-01 -0.315206D-02  0.160417D+00
     46 -0.301743D-01 -0.522634D-01  0.851469D-01  0.795087D-01  0.102686D+00
               36            37            38            39            40
     36  0.280000D+01
     37  0.000000D+00  0.280000D+01
     38  0.000000D+00  0.000000D+00  0.280000D+01
     39 -0.858763D-02 -0.148742D-01 -0.362971D-02  0.139568D+01
     40  0.748798D-02  0.129696D-01  0.316493D-02  0.259735D+00  0.241917D+00
     41  0.858763D-02  0.148742D-01 -0.362971D-02 -0.215317D-01 -0.462460D-02
     42 -0.748798D-02 -0.129696D-01  0.316493D-02 -0.462460D-02  0.290836D-01
     43 -0.172711D+00 -0.299144D+00  0.245354D+00 -0.205251D-02 -0.132355D-01
     44 -0.244726D-01 -0.423877D-01  0.347658D-01 -0.132355D-01 -0.758808D-02
     45  0.172711D+00  0.299144D+00  0.245354D+00 -0.641177D-04 -0.562451D-02
     46  0.244726D-01  0.423877D-01  0.347658D-01 -0.562451D-02 -0.127923D-01
               41            42            43            44            45
     41  0.139568D+01
     42  0.259735D+00  0.241917D+00
     43 -0.641177D-04 -0.562451D-02  0.139568D+01
     44 -0.562451D-02 -0.127923D-01  0.259735D+00  0.241917D+00
     45 -0.205251D-02 -0.132355D-01 -0.215317D-01 -0.462460D-02  0.139568D+01
     46 -0.132355D-01 -0.758808D-02 -0.462460D-02  0.290836D-01  0.259735D+00
               46
     46  0.241917D+00
 Entering OneElI...
 Calculate potential energy integrals
    NBasis =  46  MinDer = 0  MaxDer = 0
 Requested accuracy = 0.1000D-12
 PrsmSu:  NPrtUS=   2 ThrOK=T
 PRISM was handed    67084529 working-precision words and   171 shell-pairs
 PRISM was handed    67084529 working-precision words and   171 shell-pairs
 ***** Potential Energy ***** 
                1             2             3             4             5
      1  0.379758D+02
      2  0.325034D+01  0.954109D+01
      3 -0.754548D-01 -0.547415D+00  0.103022D+02
      4  0.000000D+00  0.000000D+00  0.000000D+00  0.990128D+01
      5  0.000000D+00  0.000000D+00  0.000000D+00  0.682485D-01  0.998008D+01
      6  0.395732D+01  0.722449D+01 -0.552654D+00  0.000000D+00  0.000000D+00
      7 -0.126760D-01 -0.400277D+00  0.477705D+01  0.000000D+00  0.000000D+00
      8  0.000000D+00  0.000000D+00  0.000000D+00  0.437425D+01  0.588587D-01
      9  0.000000D+00  0.000000D+00  0.000000D+00  0.588587D-01  0.444222D+01
     10  0.147551D+01  0.340376D+01 -0.309548D+00  0.000000D+00  0.000000D+00
     11 -0.255468D-02 -0.119276D+00  0.131075D+01  0.000000D+00  0.000000D+00
     12  0.000000D+00  0.000000D+00  0.000000D+00  0.117893D+01  0.177648D-01
     13  0.000000D+00  0.000000D+00  0.000000D+00  0.177648D-01  0.119944D+01
     14  0.113282D+01  0.647992D+01 -0.898759D+00  0.000000D+00  0.000000D+00
     15  0.112238D+01  0.614508D+01 -0.210964D+00  0.000000D+00  0.000000D+00
     16  0.112456D+01  0.621245D+01 -0.181380D+00  0.000000D+00  0.000000D+00
     17  0.000000D+00  0.000000D+00  0.000000D+00 -0.365400D+00  0.443756D-01
     18  0.000000D+00  0.000000D+00  0.000000D+00  0.443756D-01 -0.314160D+00
     19  0.327146D-02  0.101055D+00  0.443756D-01  0.000000D+00  0.000000D+00
     20  0.522031D-04  0.386654D+00 -0.877428D+00  0.000000D+00  0.000000D+00
     21  0.386654D+00  0.199166D+01 -0.281338D+01  0.000000D+00  0.000000D+00
     22  0.877428D+00  0.281338D+01 -0.340456D+01  0.000000D+00  0.000000D+00
     23  0.000000D+00  0.000000D+00  0.000000D+00  0.101112D+01  0.370273D-02
     24  0.000000D+00  0.000000D+00  0.000000D+00  0.370273D-02  0.101540D+01
     25  0.136689D+01  0.330447D+01 -0.247836D+01  0.000000D+00  0.000000D+00
     26  0.278636D+01  0.511865D+01 -0.180210D+01  0.000000D+00  0.000000D+00
     27  0.000000D+00  0.000000D+00  0.000000D+00  0.189296D+01  0.158251D-01
     28  0.000000D+00  0.000000D+00  0.000000D+00  0.158251D-01  0.191123D+01
     29  0.111456D+01  0.266567D+01 -0.785103D+00  0.000000D+00  0.000000D+00
     30  0.117714D+01  0.254173D+01  0.270952D+00  0.000000D+00  0.000000D+00
     31  0.000000D+00  0.000000D+00  0.000000D+00  0.915490D+00  0.120901D-01
     32  0.000000D+00  0.000000D+00  0.000000D+00  0.120901D-01  0.929450D+00
     33  0.104713D+01  0.335754D+01 -0.421660D+01  0.000000D+00  0.000000D+00
     34  0.142184D-01  0.810748D+00 -0.125900D+01  0.000000D+00  0.000000D+00
     35  0.142371D-01  0.813890D+00 -0.126422D+01  0.000000D+00  0.000000D+00
     36  0.000000D+00  0.000000D+00  0.000000D+00  0.163213D+01  0.433078D-02
     37  0.000000D+00  0.000000D+00  0.000000D+00  0.433078D-02  0.163713D+01
     38  0.280517D-04  0.471282D-02 -0.782188D-02  0.000000D+00  0.000000D+00
     39  0.638255D+00  0.217119D+01  0.142181D+01  0.121084D+01  0.209723D+01
     40  0.194661D+01  0.400503D+01  0.800304D+00  0.859971D+00  0.148951D+01
     41  0.638255D+00  0.217119D+01  0.142181D+01 -0.121084D+01 -0.209723D+01
     42  0.194661D+01  0.400503D+01  0.800304D+00 -0.859971D+00 -0.148951D+01
     43  0.655154D-03  0.713885D-01 -0.140069D+00  0.289600D-01  0.501603D-01
     44  0.297634D+00  0.991750D+00 -0.963411D+00  0.192354D+00  0.333167D+00
     45  0.655154D-03  0.713885D-01 -0.140069D+00 -0.289600D-01 -0.501603D-01
     46  0.297634D+00  0.991750D+00 -0.963411D+00 -0.192354D+00 -0.333167D+00
                6             7             8             9            10
      6  0.758242D+01
      7 -0.834042D+00  0.660462D+01
      8  0.000000D+00  0.000000D+00  0.566765D+01
      9  0.000000D+00  0.000000D+00  0.100388D+00  0.578357D+01
     10  0.475783D+01 -0.752131D+00  0.000000D+00  0.000000D+00  0.472988D+01
     11 -0.383225D+00  0.329621D+01  0.000000D+00  0.000000D+00 -0.585647D+00
     12  0.000000D+00  0.000000D+00  0.281501D+01  0.456365D-01  0.000000D+00
     13  0.000000D+00  0.000000D+00  0.456365D-01  0.286770D+01  0.000000D+00
     14  0.542661D+01 -0.781273D+00  0.000000D+00  0.000000D+00  0.270085D+01
     15  0.504117D+01 -0.159229D+00  0.000000D+00  0.000000D+00  0.247955D+01
     16  0.511303D+01 -0.130925D+00  0.000000D+00  0.000000D+00  0.251891D+01
     17  0.000000D+00  0.000000D+00 -0.275793D+00  0.424569D-01  0.000000D+00
     18  0.000000D+00  0.000000D+00  0.424569D-01 -0.226768D+00  0.000000D+00
     19  0.107802D+00  0.424569D-01  0.000000D+00  0.000000D+00  0.590381D-01
     20  0.136689D+01 -0.278636D+01  0.000000D+00  0.000000D+00  0.111456D+01
     21  0.330447D+01 -0.511865D+01  0.000000D+00  0.000000D+00  0.266567D+01
     22  0.247836D+01 -0.180210D+01  0.000000D+00  0.000000D+00  0.785103D+00
     23  0.000000D+00  0.000000D+00  0.189296D+01  0.158251D-01  0.000000D+00
     24  0.000000D+00  0.000000D+00  0.158251D-01  0.191123D+01  0.000000D+00
     25  0.462658D+01 -0.483190D+01  0.000000D+00  0.000000D+00  0.393010D+01
     26  0.483190D+01 -0.791981D+00  0.000000D+00  0.000000D+00  0.204894D+01
     27  0.000000D+00  0.000000D+00  0.342532D+01  0.430104D-01  0.000000D+00
     28  0.000000D+00  0.000000D+00  0.430104D-01  0.347498D+01  0.000000D+00
     29  0.393010D+01 -0.204894D+01  0.000000D+00  0.000000D+00  0.424426D+01
     30  0.313869D+01  0.105859D+01  0.000000D+00  0.000000D+00  0.225851D+01
     31  0.000000D+00  0.000000D+00  0.230337D+01  0.343952D-01  0.000000D+00
     32  0.000000D+00  0.000000D+00  0.343952D-01  0.234309D+01  0.000000D+00
     33  0.336089D+01 -0.384177D+01  0.000000D+00  0.000000D+00  0.221838D+01
     34  0.208513D+01 -0.358598D+01  0.000000D+00  0.000000D+00  0.191225D+01
     35  0.210397D+01 -0.362643D+01  0.000000D+00  0.000000D+00  0.193904D+01
     36  0.000000D+00  0.000000D+00  0.133257D+01 -0.167271D-02  0.000000D+00
     37  0.000000D+00  0.000000D+00 -0.167271D-02  0.133064D+01  0.000000D+00
     38  0.282511D-01 -0.606824D-01  0.000000D+00  0.000000D+00  0.401953D-01
     39  0.258654D+01  0.162733D+01  0.137902D+01  0.238854D+01  0.161802D+01
     40  0.472949D+01  0.126362D+01  0.134100D+01  0.232268D+01  0.346403D+01
     41  0.258654D+01  0.162733D+01 -0.137902D+01 -0.238854D+01  0.161802D+01
     42  0.472949D+01  0.126362D+01 -0.134100D+01 -0.232268D+01  0.346403D+01
     43  0.547347D+00 -0.128160D+01  0.282266D+00  0.488899D+00  0.101390D+01
     44  0.195008D+01 -0.276772D+01  0.534611D+00  0.925974D+00  0.243420D+01
     45  0.547347D+00 -0.128160D+01 -0.282266D+00 -0.488899D+00  0.101390D+01
     46  0.195008D+01 -0.276772D+01 -0.534611D+00 -0.925974D+00  0.243420D+01
               11            12            13            14            15
     11  0.374321D+01
     12  0.000000D+00  0.332146D+01
     13  0.000000D+00  0.363109D-01  0.336339D+01
     14 -0.236087D+00  0.000000D+00  0.000000D+00  0.887461D+01
     15 -0.461405D-01  0.000000D+00  0.000000D+00  0.280046D+01  0.809147D+01
     16 -0.378331D-01  0.000000D+00  0.000000D+00  0.283364D+01  0.272829D+01
     17  0.000000D+00 -0.799177D-01  0.124610D-01  0.000000D+00  0.000000D+00
     18  0.000000D+00  0.124610D-01 -0.655289D-01  0.000000D+00  0.000000D+00
     19  0.124610D-01  0.000000D+00  0.000000D+00  0.497726D-01  0.932295D-01
     20 -0.117714D+01  0.000000D+00  0.000000D+00  0.104713D+01  0.142184D-01
     21 -0.254173D+01  0.000000D+00  0.000000D+00  0.335754D+01  0.810748D+00
     22  0.270952D+00  0.000000D+00  0.000000D+00  0.421660D+01  0.125900D+01
     23  0.000000D+00  0.915490D+00  0.120901D-01  0.000000D+00  0.000000D+00
     24  0.000000D+00  0.120901D-01  0.929450D+00  0.000000D+00  0.000000D+00
     25 -0.313869D+01  0.000000D+00  0.000000D+00  0.336089D+01  0.208513D+01
     26  0.105859D+01  0.000000D+00  0.000000D+00  0.384177D+01  0.358598D+01
     27  0.000000D+00  0.230337D+01  0.343952D-01  0.000000D+00  0.000000D+00
     28  0.000000D+00  0.343952D-01  0.234309D+01  0.000000D+00  0.000000D+00
     29 -0.225851D+01  0.000000D+00  0.000000D+00  0.221838D+01  0.191225D+01
     30  0.203658D+01  0.000000D+00  0.000000D+00  0.183978D+01  0.190265D+01
     31  0.000000D+00  0.294669D+01  0.324184D-01  0.000000D+00  0.000000D+00
     32  0.000000D+00  0.324184D-01  0.298413D+01  0.000000D+00  0.000000D+00
     33 -0.183978D+01  0.000000D+00  0.000000D+00  0.488618D+01  0.141061D+01
     34 -0.190265D+01  0.000000D+00  0.000000D+00  0.141061D+01  0.609031D+00
     35 -0.193569D+01  0.000000D+00  0.000000D+00  0.141516D+01  0.203662D+00
     36  0.000000D+00  0.229463D+00 -0.678122D-02  0.000000D+00  0.000000D+00
     37  0.000000D+00 -0.678122D-02  0.221632D+00  0.000000D+00  0.000000D+00
     38 -0.495596D-01  0.000000D+00  0.000000D+00  0.683827D-02  0.258640D-02
     39  0.606426D+00  0.513050D+00  0.888628D+00  0.155326D+01  0.135699D+01
     40  0.790796D+00  0.799674D+00  0.138508D+01  0.296063D+01  0.282205D+01
     41  0.606426D+00 -0.513050D+00 -0.888628D+00  0.155326D+01  0.135699D+01
     42  0.790796D+00 -0.799674D+00 -0.138508D+01  0.296063D+01  0.282205D+01
     43 -0.140106D+01  0.319312D+00  0.553065D+00  0.135129D+00  0.186225D-01
     44 -0.267289D+01  0.551944D+00  0.955996D+00  0.114867D+01  0.587955D+00
     45 -0.140106D+01 -0.319312D+00 -0.553065D+00  0.135129D+00  0.186225D-01
     46 -0.267289D+01 -0.551944D+00 -0.955996D+00  0.114867D+01  0.587955D+00
               16            17            18            19            20
     16  0.823660D+01
     17  0.000000D+00  0.840137D+01
     18  0.000000D+00  0.862086D-01  0.850092D+01
     19  0.124466D+00  0.000000D+00  0.000000D+00  0.818486D+01
     20  0.142371D-01  0.000000D+00  0.000000D+00  0.280517D-04  0.379758D+02
     21  0.813890D+00  0.000000D+00  0.000000D+00  0.471282D-02  0.325034D+01
     22  0.126422D+01  0.000000D+00  0.000000D+00  0.782188D-02  0.754548D-01
     23  0.000000D+00 -0.163213D+01 -0.433078D-02  0.000000D+00  0.000000D+00
     24  0.000000D+00 -0.433078D-02 -0.163713D+01  0.000000D+00  0.000000D+00
     25  0.210397D+01  0.000000D+00  0.000000D+00  0.282511D-01  0.395732D+01
     26  0.362643D+01  0.000000D+00  0.000000D+00  0.606824D-01  0.126760D-01
     27  0.000000D+00 -0.133257D+01  0.167271D-02  0.000000D+00  0.000000D+00
     28  0.000000D+00  0.167271D-02 -0.133064D+01  0.000000D+00  0.000000D+00
     29  0.193904D+01  0.000000D+00  0.000000D+00  0.401953D-01  0.147551D+01
     30  0.193569D+01  0.000000D+00  0.000000D+00  0.495596D-01  0.255468D-02
     31  0.000000D+00 -0.229463D+00  0.678122D-02  0.000000D+00  0.000000D+00
     32  0.000000D+00  0.678122D-02 -0.221632D+00  0.000000D+00  0.000000D+00
     33  0.141516D+01  0.000000D+00  0.000000D+00  0.683827D-02  0.113282D+01
     34  0.203662D+00  0.000000D+00  0.000000D+00  0.258640D-02  0.112238D+01
     35  0.612633D+00  0.000000D+00  0.000000D+00  0.281637D-02  0.112456D+01
     36  0.000000D+00 -0.279128D+01 -0.617519D-02  0.000000D+00  0.000000D+00
     37  0.000000D+00 -0.617519D-02 -0.279841D+01  0.000000D+00  0.000000D+00
     38  0.281637D-02  0.000000D+00  0.000000D+00  0.610985D+00  0.327146D-02
     39  0.228996D+01  0.947577D+00  0.164125D+01  0.139945D+01  0.655154D-03
     40  0.307834D+01  0.190751D+00  0.330391D+00  0.384440D+00  0.297634D+00
     41  0.228996D+01 -0.947577D+00 -0.164125D+01  0.139945D+01  0.655154D-03
     42  0.307834D+01 -0.190751D+00 -0.330391D+00  0.384440D+00  0.297634D+00
     43  0.294975D-01 -0.424635D-01 -0.735490D-01  0.163124D-01  0.638255D+00
     44  0.634943D+00 -0.170299D+00 -0.294966D+00  0.704821D-01  0.194661D+01
     45  0.294975D-01  0.424635D-01  0.735490D-01  0.163124D-01  0.638255D+00
     46  0.634943D+00  0.170299D+00  0.294966D+00  0.704821D-01  0.194661D+01
               21            22            23            24            25
     21  0.954109D+01
     22  0.547415D+00  0.103022D+02
     23  0.000000D+00  0.000000D+00  0.990128D+01
     24  0.000000D+00  0.000000D+00  0.682485D-01  0.998008D+01
     25  0.722449D+01  0.552654D+00  0.000000D+00  0.000000D+00  0.758242D+01
     26  0.400277D+00  0.477705D+01  0.000000D+00  0.000000D+00  0.834042D+00
     27  0.000000D+00  0.000000D+00  0.437425D+01  0.588587D-01  0.000000D+00
     28  0.000000D+00  0.000000D+00  0.588587D-01  0.444222D+01  0.000000D+00
     29  0.340376D+01  0.309548D+00  0.000000D+00  0.000000D+00  0.475783D+01
     30  0.119276D+00  0.131075D+01  0.000000D+00  0.000000D+00  0.383225D+00
     31  0.000000D+00  0.000000D+00  0.117893D+01  0.177648D-01  0.000000D+00
     32  0.000000D+00  0.000000D+00  0.177648D-01  0.119944D+01  0.000000D+00
     33  0.647992D+01  0.898759D+00  0.000000D+00  0.000000D+00  0.542661D+01
     34  0.614508D+01  0.210964D+00  0.000000D+00  0.000000D+00  0.504117D+01
     35  0.621245D+01  0.181380D+00  0.000000D+00  0.000000D+00  0.511303D+01
     36  0.000000D+00  0.000000D+00  0.365400D+00 -0.443756D-01  0.000000D+00
     37  0.000000D+00  0.000000D+00 -0.443756D-01  0.314160D+00  0.000000D+00
     38  0.101055D+00 -0.443756D-01  0.000000D+00  0.000000D+00  0.107802D+00
     39  0.713885D-01  0.140069D+00  0.289600D-01  0.501603D-01  0.547347D+00
     40  0.991750D+00  0.963411D+00  0.192354D+00  0.333167D+00  0.195008D+01
     41  0.713885D-01  0.140069D+00 -0.289600D-01 -0.501603D-01  0.547347D+00
     42  0.991750D+00  0.963411D+00 -0.192354D+00 -0.333167D+00  0.195008D+01
     43  0.217119D+01 -0.142181D+01  0.121084D+01  0.209723D+01  0.258654D+01
     44  0.400503D+01 -0.800304D+00  0.859971D+00  0.148951D+01  0.472949D+01
     45  0.217119D+01 -0.142181D+01 -0.121084D+01 -0.209723D+01  0.258654D+01
     46  0.400503D+01 -0.800304D+00 -0.859971D+00 -0.148951D+01  0.472949D+01
               26            27            28            29            30
     26  0.660462D+01
     27  0.000000D+00  0.566765D+01
     28  0.000000D+00  0.100388D+00  0.578357D+01
     29  0.752131D+00  0.000000D+00  0.000000D+00  0.472988D+01
     30  0.329621D+01  0.000000D+00  0.000000D+00  0.585647D+00  0.374321D+01
     31  0.000000D+00  0.281501D+01  0.456365D-01  0.000000D+00  0.000000D+00
     32  0.000000D+00  0.456365D-01  0.286770D+01  0.000000D+00  0.000000D+00
     33  0.781273D+00  0.000000D+00  0.000000D+00  0.270085D+01  0.236087D+00
     34  0.159229D+00  0.000000D+00  0.000000D+00  0.247955D+01  0.461405D-01
     35  0.130925D+00  0.000000D+00  0.000000D+00  0.251891D+01  0.378331D-01
     36  0.000000D+00  0.275793D+00 -0.424569D-01  0.000000D+00  0.000000D+00
     37  0.000000D+00 -0.424569D-01  0.226768D+00  0.000000D+00  0.000000D+00
     38 -0.424569D-01  0.000000D+00  0.000000D+00  0.590381D-01 -0.124610D-01
     39  0.128160D+01  0.282266D+00  0.488899D+00  0.101390D+01  0.140106D+01
     40  0.276772D+01  0.534611D+00  0.925974D+00  0.243420D+01  0.267289D+01
     41  0.128160D+01 -0.282266D+00 -0.488899D+00  0.101390D+01  0.140106D+01
     42  0.276772D+01 -0.534611D+00 -0.925974D+00  0.243420D+01  0.267289D+01
     43 -0.162733D+01  0.137902D+01  0.238854D+01  0.161802D+01 -0.606426D+00
     44 -0.126362D+01  0.134100D+01  0.232268D+01  0.346403D+01 -0.790796D+00
     45 -0.162733D+01 -0.137902D+01 -0.238854D+01  0.161802D+01 -0.606426D+00
     46 -0.126362D+01 -0.134100D+01 -0.232268D+01  0.346403D+01 -0.790796D+00
               31            32            33            34            35
     31  0.332146D+01
     32  0.363109D-01  0.336339D+01
     33  0.000000D+00  0.000000D+00  0.887461D+01
     34  0.000000D+00  0.000000D+00  0.280046D+01  0.809147D+01
     35  0.000000D+00  0.000000D+00  0.283364D+01  0.272829D+01  0.823660D+01
     36  0.799177D-01 -0.124610D-01  0.000000D+00  0.000000D+00  0.000000D+00
     37 -0.124610D-01  0.655289D-01  0.000000D+00  0.000000D+00  0.000000D+00
     38  0.000000D+00  0.000000D+00  0.497726D-01  0.932295D-01  0.124466D+00
     39  0.319312D+00  0.553065D+00  0.135129D+00  0.186225D-01  0.294975D-01
     40  0.551944D+00  0.955996D+00  0.114867D+01  0.587955D+00  0.634943D+00
     41 -0.319312D+00 -0.553065D+00  0.135129D+00  0.186225D-01  0.294975D-01
     42 -0.551944D+00 -0.955996D+00  0.114867D+01  0.587955D+00  0.634943D+00
     43  0.513050D+00  0.888628D+00  0.155326D+01  0.135699D+01  0.228996D+01
     44  0.799674D+00  0.138508D+01  0.296063D+01  0.282205D+01  0.307834D+01
     45 -0.513050D+00 -0.888628D+00  0.155326D+01  0.135699D+01  0.228996D+01
     46 -0.799674D+00 -0.138508D+01  0.296063D+01  0.282205D+01  0.307834D+01
               36            37            38            39            40
     36  0.840137D+01
     37  0.862086D-01  0.850092D+01
     38  0.000000D+00  0.000000D+00  0.818486D+01
     39  0.424635D-01  0.735490D-01  0.163124D-01  0.670738D+01
     40  0.170299D+00  0.294966D+00  0.704821D-01  0.405566D+01  0.541359D+01
     41 -0.424635D-01 -0.735490D-01  0.163124D-01  0.103927D+00  0.897561D+00
     42 -0.170299D+00 -0.294966D+00  0.704821D-01  0.897561D+00  0.234661D+01
     43 -0.947577D+00 -0.164125D+01  0.139945D+01  0.390719D-02  0.247619D+00
     44 -0.190751D+00 -0.330391D+00  0.384440D+00  0.247619D+00  0.107106D+01
     45  0.947577D+00  0.164125D+01  0.139945D+01  0.108997D-03  0.592825D-01
     46  0.190751D+00  0.330391D+00  0.384440D+00  0.592825D-01  0.486071D+00
               41            42            43            44            45
     41  0.670738D+01
     42  0.405566D+01  0.541359D+01
     43  0.108997D-03  0.592825D-01  0.670738D+01
     44  0.592825D-01  0.486071D+00  0.405566D+01  0.541359D+01
     45  0.390719D-02  0.247619D+00  0.103927D+00  0.897561D+00  0.670738D+01
     46  0.247619D+00  0.107106D+01  0.897561D+00  0.234661D+01  0.405566D+01
               46
     46  0.541359D+01
 ****** Core Hamiltonian ****** 
                1             2             3             4             5
      1 -0.217682D+02
      2 -0.449791D+01 -0.860884D+01
      3  0.754548D-01  0.547415D+00 -0.812383D+01
      4  0.000000D+00  0.000000D+00  0.000000D+00 -0.772295D+01
      5  0.000000D+00  0.000000D+00  0.000000D+00 -0.682485D-01 -0.780175D+01
      6 -0.386737D+01 -0.691777D+01  0.552654D+00  0.000000D+00  0.000000D+00
      7  0.126760D-01  0.400277D+00 -0.440038D+01  0.000000D+00  0.000000D+00
      8  0.000000D+00  0.000000D+00  0.000000D+00 -0.399758D+01 -0.588587D-01
      9  0.000000D+00  0.000000D+00  0.000000D+00 -0.588587D-01 -0.406554D+01
     10 -0.146643D+01 -0.335510D+01  0.309548D+00  0.000000D+00  0.000000D+00
     11  0.255468D-02  0.119276D+00 -0.127719D+01  0.000000D+00  0.000000D+00
     12  0.000000D+00  0.000000D+00  0.000000D+00 -0.114537D+01 -0.177648D-01
     13  0.000000D+00  0.000000D+00  0.000000D+00 -0.177648D-01 -0.116588D+01
     14 -0.165764D+01 -0.595988D+01  0.898759D+00  0.000000D+00  0.000000D+00
     15 -0.164720D+01 -0.562503D+01  0.210964D+00  0.000000D+00  0.000000D+00
     16 -0.164938D+01 -0.569240D+01  0.181380D+00  0.000000D+00  0.000000D+00
     17  0.000000D+00  0.000000D+00  0.000000D+00  0.365400D+00 -0.443756D-01
     18  0.000000D+00  0.000000D+00  0.000000D+00 -0.443756D-01  0.314160D+00
     19 -0.327146D-02 -0.101055D+00 -0.443756D-01  0.000000D+00  0.000000D+00
     20 -0.187616D-03 -0.417212D+00  0.907603D+00  0.000000D+00  0.000000D+00
     21 -0.417212D+00 -0.199859D+01  0.269926D+01  0.000000D+00  0.000000D+00
     22 -0.907603D+00 -0.269926D+01  0.306283D+01  0.000000D+00  0.000000D+00
     23  0.000000D+00  0.000000D+00  0.000000D+00 -0.978546D+00 -0.370273D-02
     24  0.000000D+00  0.000000D+00  0.000000D+00 -0.370273D-02 -0.982821D+00
     25 -0.135751D+01 -0.324209D+01  0.236849D+01  0.000000D+00  0.000000D+00
     26 -0.272529D+01 -0.487928D+01  0.161843D+01  0.000000D+00  0.000000D+00
     27  0.000000D+00  0.000000D+00  0.000000D+00 -0.178775D+01 -0.158251D-01
     28  0.000000D+00  0.000000D+00  0.000000D+00 -0.158251D-01 -0.180603D+01
     29 -0.110898D+01 -0.263469D+01  0.772828D+00  0.000000D+00  0.000000D+00
     30 -0.116644D+01 -0.248688D+01 -0.265481D+00  0.000000D+00  0.000000D+00
     31  0.000000D+00  0.000000D+00  0.000000D+00 -0.892423D+00 -0.120901D-01
     32  0.000000D+00  0.000000D+00  0.000000D+00 -0.120901D-01 -0.906383D+00
     33 -0.112312D+01 -0.317208D+01  0.373219D+01  0.000000D+00  0.000000D+00
     34 -0.262231D-01 -0.881032D+00  0.130460D+01  0.000000D+00  0.000000D+00
     35 -0.262418D-01 -0.884174D+00  0.130982D+01  0.000000D+00  0.000000D+00
     36  0.000000D+00  0.000000D+00  0.000000D+00 -0.148951D+01 -0.433078D-02
     37  0.000000D+00  0.000000D+00  0.000000D+00 -0.433078D-02 -0.149451D+01
     38 -0.280517D-04 -0.471282D-02  0.782188D-02  0.000000D+00  0.000000D+00
     39 -0.673062D+00 -0.213139D+01 -0.130070D+01 -0.111151D+01 -0.192519D+01
     40 -0.192282D+01 -0.389165D+01 -0.731559D+00 -0.803588D+00 -0.139185D+01
     41 -0.673062D+00 -0.213139D+01 -0.130070D+01  0.111151D+01  0.192519D+01
     42 -0.192282D+01 -0.389165D+01 -0.731559D+00  0.803588D+00  0.139185D+01
     43 -0.100419D-02 -0.867459D-01  0.162290D+00 -0.343825D-01 -0.595523D-01
     44 -0.302194D+00 -0.100482D+01  0.952036D+00 -0.189578D+00 -0.328359D+00
     45 -0.100419D-02 -0.867459D-01  0.162290D+00  0.343825D-01  0.595523D-01
     46 -0.302194D+00 -0.100482D+01  0.952036D+00  0.189578D+00  0.328359D+00
                6             7             8             9            10
      6 -0.732935D+01
      7  0.834042D+00 -0.618283D+01
      8  0.000000D+00  0.000000D+00 -0.524586D+01
      9  0.000000D+00  0.000000D+00 -0.100388D+00 -0.536178D+01
     10 -0.468192D+01  0.752131D+00  0.000000D+00  0.000000D+00 -0.466418D+01
     11  0.383225D+00 -0.319386D+01  0.000000D+00  0.000000D+00  0.585647D+00
     12  0.000000D+00  0.000000D+00 -0.271266D+01 -0.456365D-01  0.000000D+00
     13  0.000000D+00  0.000000D+00 -0.456365D-01 -0.276535D+01  0.000000D+00
     14 -0.520032D+01  0.781273D+00  0.000000D+00  0.000000D+00 -0.266202D+01
     15 -0.481488D+01  0.159229D+00  0.000000D+00  0.000000D+00 -0.244072D+01
     16 -0.488675D+01  0.130925D+00  0.000000D+00  0.000000D+00 -0.248007D+01
     17  0.000000D+00  0.000000D+00  0.275793D+00 -0.424569D-01  0.000000D+00
     18  0.000000D+00  0.000000D+00 -0.424569D-01  0.226768D+00  0.000000D+00
     19 -0.107802D+00 -0.424569D-01  0.000000D+00  0.000000D+00 -0.590381D-01
     20 -0.135751D+01  0.272529D+01  0.000000D+00  0.000000D+00 -0.110898D+01
     21 -0.324209D+01  0.487928D+01  0.000000D+00  0.000000D+00 -0.263469D+01
     22 -0.236849D+01  0.161843D+01  0.000000D+00  0.000000D+00 -0.772828D+00
     23  0.000000D+00  0.000000D+00 -0.178775D+01 -0.158251D-01  0.000000D+00
     24  0.000000D+00  0.000000D+00 -0.158251D-01 -0.180603D+01  0.000000D+00
     25 -0.453322D+01  0.463227D+01  0.000000D+00  0.000000D+00 -0.387856D+01
     26 -0.463227D+01  0.667974D+00  0.000000D+00  0.000000D+00 -0.200935D+01
     27  0.000000D+00  0.000000D+00 -0.323417D+01 -0.430104D-01  0.000000D+00
     28  0.000000D+00  0.000000D+00 -0.430104D-01 -0.328383D+01  0.000000D+00
     29 -0.387856D+01  0.200935D+01  0.000000D+00  0.000000D+00 -0.419262D+01
     30 -0.306100D+01 -0.103234D+01  0.000000D+00  0.000000D+00 -0.221079D+01
     31  0.000000D+00  0.000000D+00 -0.222898D+01 -0.343952D-01  0.000000D+00
     32  0.000000D+00  0.000000D+00 -0.343952D-01 -0.226869D+01  0.000000D+00
     33 -0.326277D+01  0.363763D+01  0.000000D+00  0.000000D+00 -0.219225D+01
     34 -0.205744D+01  0.341519D+01  0.000000D+00  0.000000D+00 -0.188807D+01
     35 -0.207627D+01  0.345565D+01  0.000000D+00  0.000000D+00 -0.191487D+01
     36  0.000000D+00  0.000000D+00 -0.121578D+01  0.167271D-02  0.000000D+00
     37  0.000000D+00  0.000000D+00  0.167271D-02 -0.121384D+01  0.000000D+00
     38 -0.282511D-01  0.606824D-01  0.000000D+00  0.000000D+00 -0.401953D-01
     39 -0.249304D+01 -0.148729D+01 -0.126416D+01 -0.218960D+01 -0.158983D+01
     40 -0.459663D+01 -0.115609D+01 -0.125281D+01 -0.216993D+01 -0.340437D+01
     41 -0.249304D+01 -0.148729D+01  0.126416D+01  0.218960D+01 -0.158983D+01
     42 -0.459663D+01 -0.115609D+01  0.125281D+01  0.216993D+01 -0.340437D+01
     43 -0.561489D+00  0.126770D+01 -0.278874D+00 -0.483025D+00 -0.100307D+01
     44 -0.194306D+01  0.269463D+01 -0.516774D+00 -0.895079D+00 -0.240668D+01
     45 -0.561489D+00  0.126770D+01  0.278874D+00  0.483025D+00 -0.100307D+01
     46 -0.194306D+01  0.269463D+01  0.516774D+00  0.895079D+00 -0.240668D+01
               11            12            13            14            15
     11 -0.363371D+01
     12  0.000000D+00 -0.321196D+01
     13  0.000000D+00 -0.363109D-01 -0.325389D+01
     14  0.236087D+00  0.000000D+00  0.000000D+00 -0.714127D+01
     15  0.461405D-01  0.000000D+00  0.000000D+00 -0.293379D+01 -0.635814D+01
     16  0.378331D-01  0.000000D+00  0.000000D+00 -0.296697D+01 -0.286162D+01
     17  0.000000D+00  0.799177D-01 -0.124610D-01  0.000000D+00  0.000000D+00
     18  0.000000D+00 -0.124610D-01  0.655289D-01  0.000000D+00  0.000000D+00
     19 -0.124610D-01  0.000000D+00  0.000000D+00 -0.497726D-01 -0.932295D-01
     20  0.116644D+01  0.000000D+00  0.000000D+00 -0.112312D+01 -0.262231D-01
     21  0.248688D+01  0.000000D+00  0.000000D+00 -0.317208D+01 -0.881032D+00
     22 -0.265481D+00  0.000000D+00  0.000000D+00 -0.373219D+01 -0.130460D+01
     23  0.000000D+00 -0.892423D+00 -0.120901D-01  0.000000D+00  0.000000D+00
     24  0.000000D+00 -0.120901D-01 -0.906383D+00  0.000000D+00  0.000000D+00
     25  0.306100D+01  0.000000D+00  0.000000D+00 -0.326277D+01 -0.205744D+01
     26 -0.103234D+01  0.000000D+00  0.000000D+00 -0.363763D+01 -0.341519D+01
     27  0.000000D+00 -0.222898D+01 -0.343952D-01  0.000000D+00  0.000000D+00
     28  0.000000D+00 -0.343952D-01 -0.226869D+01  0.000000D+00  0.000000D+00
     29  0.221079D+01  0.000000D+00  0.000000D+00 -0.219225D+01 -0.188807D+01
     30 -0.198307D+01  0.000000D+00  0.000000D+00 -0.179941D+01 -0.185753D+01
     31  0.000000D+00 -0.285703D+01 -0.324184D-01  0.000000D+00  0.000000D+00
     32  0.000000D+00 -0.324184D-01 -0.289447D+01  0.000000D+00  0.000000D+00
     33  0.179941D+01  0.000000D+00  0.000000D+00 -0.415900D+01 -0.148152D+01
     34  0.185753D+01  0.000000D+00  0.000000D+00 -0.148152D+01 -0.634297D+00
     35  0.189057D+01  0.000000D+00  0.000000D+00 -0.148608D+01 -0.265647D+00
     36  0.000000D+00 -0.223110D+00  0.678122D-02  0.000000D+00  0.000000D+00
     37  0.000000D+00  0.678122D-02 -0.215280D+00  0.000000D+00  0.000000D+00
     38  0.495596D-01  0.000000D+00  0.000000D+00 -0.683827D-02 -0.258640D-02
     39 -0.585438D+00 -0.495835D+00 -0.858812D+00 -0.151662D+01 -0.136014D+01
     40 -0.754006D+00 -0.769500D+00 -0.133281D+01 -0.287548D+01 -0.274254D+01
     41 -0.585438D+00  0.495835D+00  0.858812D+00 -0.151662D+01 -0.136014D+01
     42 -0.754006D+00  0.769500D+00  0.133281D+01 -0.287548D+01 -0.274254D+01
     43  0.136708D+01 -0.311018D+00 -0.538699D+00 -0.161300D+00 -0.256858D-01
     44  0.260527D+01 -0.535442D+00 -0.927413D+00 -0.114756D+01 -0.603503D+00
     45  0.136708D+01  0.311018D+00  0.538699D+00 -0.161300D+00 -0.256858D-01
     46  0.260527D+01  0.535442D+00  0.927413D+00 -0.114756D+01 -0.603503D+00
               16            17            18            19            20
     16 -0.650327D+01
     17  0.000000D+00 -0.560137D+01
     18  0.000000D+00 -0.862086D-01 -0.570092D+01
     19 -0.124466D+00  0.000000D+00  0.000000D+00 -0.538486D+01
     20 -0.262418D-01  0.000000D+00  0.000000D+00 -0.280517D-04 -0.217682D+02
     21 -0.884174D+00  0.000000D+00  0.000000D+00 -0.471282D-02 -0.449791D+01
     22 -0.130982D+01  0.000000D+00  0.000000D+00 -0.782188D-02 -0.754548D-01
     23  0.000000D+00  0.148951D+01  0.433078D-02  0.000000D+00  0.000000D+00
     24  0.000000D+00  0.433078D-02  0.149451D+01  0.000000D+00  0.000000D+00
     25 -0.207627D+01  0.000000D+00  0.000000D+00 -0.282511D-01 -0.386737D+01
     26 -0.345565D+01  0.000000D+00  0.000000D+00 -0.606824D-01 -0.126760D-01
     27  0.000000D+00  0.121578D+01 -0.167271D-02  0.000000D+00  0.000000D+00
     28  0.000000D+00 -0.167271D-02  0.121384D+01  0.000000D+00  0.000000D+00
     29 -0.191487D+01  0.000000D+00  0.000000D+00 -0.401953D-01 -0.146643D+01
     30 -0.189057D+01  0.000000D+00  0.000000D+00 -0.495596D-01 -0.255468D-02
     31  0.000000D+00  0.223110D+00 -0.678122D-02  0.000000D+00  0.000000D+00
     32  0.000000D+00 -0.678122D-02  0.215280D+00  0.000000D+00  0.000000D+00
     33 -0.148608D+01  0.000000D+00  0.000000D+00 -0.683827D-02 -0.165764D+01
     34 -0.265647D+00  0.000000D+00  0.000000D+00 -0.258640D-02 -0.164720D+01
     35 -0.637899D+00  0.000000D+00  0.000000D+00 -0.281637D-02 -0.164938D+01
     36  0.000000D+00  0.224985D+01  0.617519D-02  0.000000D+00  0.000000D+00
     37  0.000000D+00  0.617519D-02  0.225698D+01  0.000000D+00  0.000000D+00
     38 -0.281637D-02  0.000000D+00  0.000000D+00 -0.555907D+00 -0.327146D-02
     39 -0.212954D+01 -0.774866D+00 -0.134211D+01 -0.115409D+01 -0.100419D-02
     40 -0.297565D+01 -0.166279D+00 -0.288003D+00 -0.349674D+00 -0.302194D+00
     41 -0.212954D+01  0.774866D+00  0.134211D+01 -0.115409D+01 -0.100419D-02
     42 -0.297565D+01  0.166279D+00  0.288003D+00 -0.349674D+00 -0.302194D+00
     43 -0.389805D-01  0.510511D-01  0.884232D-01 -0.199421D-01 -0.673062D+00
     44 -0.648381D+00  0.162811D+00  0.281996D+00 -0.673171D-01 -0.192282D+01
     45 -0.389805D-01 -0.510511D-01 -0.884232D-01 -0.199421D-01 -0.673062D+00
     46 -0.648381D+00 -0.162811D+00 -0.281996D+00 -0.673171D-01 -0.192282D+01
               21            22            23            24            25
     21 -0.860884D+01
     22 -0.547415D+00 -0.812383D+01
     23  0.000000D+00  0.000000D+00 -0.772295D+01
     24  0.000000D+00  0.000000D+00 -0.682485D-01 -0.780175D+01
     25 -0.691777D+01 -0.552654D+00  0.000000D+00  0.000000D+00 -0.732935D+01
     26 -0.400277D+00 -0.440038D+01  0.000000D+00  0.000000D+00 -0.834042D+00
     27  0.000000D+00  0.000000D+00 -0.399758D+01 -0.588587D-01  0.000000D+00
     28  0.000000D+00  0.000000D+00 -0.588587D-01 -0.406554D+01  0.000000D+00
     29 -0.335510D+01 -0.309548D+00  0.000000D+00  0.000000D+00 -0.468192D+01
     30 -0.119276D+00 -0.127719D+01  0.000000D+00  0.000000D+00 -0.383225D+00
     31  0.000000D+00  0.000000D+00 -0.114537D+01 -0.177648D-01  0.000000D+00
     32  0.000000D+00  0.000000D+00 -0.177648D-01 -0.116588D+01  0.000000D+00
     33 -0.595988D+01 -0.898759D+00  0.000000D+00  0.000000D+00 -0.520032D+01
     34 -0.562503D+01 -0.210964D+00  0.000000D+00  0.000000D+00 -0.481488D+01
     35 -0.569240D+01 -0.181380D+00  0.000000D+00  0.000000D+00 -0.488675D+01
     36  0.000000D+00  0.000000D+00 -0.365400D+00  0.443756D-01  0.000000D+00
     37  0.000000D+00  0.000000D+00  0.443756D-01 -0.314160D+00  0.000000D+00
     38 -0.101055D+00  0.443756D-01  0.000000D+00  0.000000D+00 -0.107802D+00
     39 -0.867459D-01 -0.162290D+00 -0.343825D-01 -0.595523D-01 -0.561489D+00
     40 -0.100482D+01 -0.952036D+00 -0.189578D+00 -0.328359D+00 -0.194306D+01
     41 -0.867459D-01 -0.162290D+00  0.343825D-01  0.595523D-01 -0.561489D+00
     42 -0.100482D+01 -0.952036D+00  0.189578D+00  0.328359D+00 -0.194306D+01
     43 -0.213139D+01  0.130070D+01 -0.111151D+01 -0.192519D+01 -0.249304D+01
     44 -0.389165D+01  0.731559D+00 -0.803588D+00 -0.139185D+01 -0.459663D+01
     45 -0.213139D+01  0.130070D+01  0.111151D+01  0.192519D+01 -0.249304D+01
     46 -0.389165D+01  0.731559D+00  0.803588D+00  0.139185D+01 -0.459663D+01
               26            27            28            29            30
     26 -0.618283D+01
     27  0.000000D+00 -0.524586D+01
     28  0.000000D+00 -0.100388D+00 -0.536178D+01
     29 -0.752131D+00  0.000000D+00  0.000000D+00 -0.466418D+01
     30 -0.319386D+01  0.000000D+00  0.000000D+00 -0.585647D+00 -0.363371D+01
     31  0.000000D+00 -0.271266D+01 -0.456365D-01  0.000000D+00  0.000000D+00
     32  0.000000D+00 -0.456365D-01 -0.276535D+01  0.000000D+00  0.000000D+00
     33 -0.781273D+00  0.000000D+00  0.000000D+00 -0.266202D+01 -0.236087D+00
     34 -0.159229D+00  0.000000D+00  0.000000D+00 -0.244072D+01 -0.461405D-01
     35 -0.130925D+00  0.000000D+00  0.000000D+00 -0.248007D+01 -0.378331D-01
     36  0.000000D+00 -0.275793D+00  0.424569D-01  0.000000D+00  0.000000D+00
     37  0.000000D+00  0.424569D-01 -0.226768D+00  0.000000D+00  0.000000D+00
     38  0.424569D-01  0.000000D+00  0.000000D+00 -0.590381D-01  0.124610D-01
     39 -0.126770D+01 -0.278874D+00 -0.483025D+00 -0.100307D+01 -0.136708D+01
     40 -0.269463D+01 -0.516774D+00 -0.895079D+00 -0.240668D+01 -0.260527D+01
     41 -0.126770D+01  0.278874D+00  0.483025D+00 -0.100307D+01 -0.136708D+01
     42 -0.269463D+01  0.516774D+00  0.895079D+00 -0.240668D+01 -0.260527D+01
     43  0.148729D+01 -0.126416D+01 -0.218960D+01 -0.158983D+01  0.585438D+00
     44  0.115609D+01 -0.125281D+01 -0.216993D+01 -0.340437D+01  0.754006D+00
     45  0.148729D+01  0.126416D+01  0.218960D+01 -0.158983D+01  0.585438D+00
     46  0.115609D+01  0.125281D+01  0.216993D+01 -0.340437D+01  0.754006D+00
               31            32            33            34            35
     31 -0.321196D+01
     32 -0.363109D-01 -0.325389D+01
     33  0.000000D+00  0.000000D+00 -0.714127D+01
     34  0.000000D+00  0.000000D+00 -0.293379D+01 -0.635814D+01
     35  0.000000D+00  0.000000D+00 -0.296697D+01 -0.286162D+01 -0.650327D+01
     36 -0.799177D-01  0.124610D-01  0.000000D+00  0.000000D+00  0.000000D+00
     37  0.124610D-01 -0.655289D-01  0.000000D+00  0.000000D+00  0.000000D+00
     38  0.000000D+00  0.000000D+00 -0.497726D-01 -0.932295D-01 -0.124466D+00
     39 -0.311018D+00 -0.538699D+00 -0.161300D+00 -0.256858D-01 -0.389805D-01
     40 -0.535442D+00 -0.927413D+00 -0.114756D+01 -0.603503D+00 -0.648381D+00
     41  0.311018D+00  0.538699D+00 -0.161300D+00 -0.256858D-01 -0.389805D-01
     42  0.535442D+00  0.927413D+00 -0.114756D+01 -0.603503D+00 -0.648381D+00
     43 -0.495835D+00 -0.858812D+00 -0.151662D+01 -0.136014D+01 -0.212954D+01
     44 -0.769500D+00 -0.133281D+01 -0.287548D+01 -0.274254D+01 -0.297565D+01
     45  0.495835D+00  0.858812D+00 -0.151662D+01 -0.136014D+01 -0.212954D+01
     46  0.769500D+00  0.133281D+01 -0.287548D+01 -0.274254D+01 -0.297565D+01
               36            37            38            39            40
     36 -0.560137D+01
     37 -0.862086D-01 -0.570092D+01
     38  0.000000D+00  0.000000D+00 -0.538486D+01
     39 -0.510511D-01 -0.884232D-01 -0.199421D-01 -0.531170D+01
     40 -0.162811D+00 -0.281996D+00 -0.673171D-01 -0.379592D+01 -0.517167D+01
     41  0.510511D-01  0.884232D-01 -0.199421D-01 -0.125459D+00 -0.902186D+00
     42  0.162811D+00  0.281996D+00 -0.673171D-01 -0.902186D+00 -0.231752D+01
     43  0.774866D+00  0.134211D+01 -0.115409D+01 -0.595969D-02 -0.260855D+00
     44  0.166279D+00  0.288003D+00 -0.349674D+00 -0.260855D+00 -0.107865D+01
     45 -0.774866D+00 -0.134211D+01 -0.115409D+01 -0.173115D-03 -0.649070D-01
     46 -0.166279D+00 -0.288003D+00 -0.349674D+00 -0.649070D-01 -0.498863D+00
               41            42            43            44            45
     41 -0.531170D+01
     42 -0.379592D+01 -0.517167D+01
     43 -0.173115D-03 -0.649070D-01 -0.531170D+01
     44 -0.649070D-01 -0.498863D+00 -0.379592D+01 -0.517167D+01
     45 -0.595969D-02 -0.260855D+00 -0.125459D+00 -0.902186D+00 -0.531170D+01
     46 -0.260855D+00 -0.107865D+01 -0.902186D+00 -0.231752D+01 -0.379592D+01
               46
     46 -0.517167D+01
 SVDSVc IR=1
 SVDSVc V= 7.30D+00 5.12D+00 4.09D+00 3.11D+00 2.40D+00 2.15D+00 1.51D+00 1.45D+00 1.39D+00 1.23D+00
 SVDSVc V= 1.19D+00 1.18D+00 1.12D+00 1.08D+00 1.04D+00 9.76D-01 9.65D-01 8.61D-01 8.05D-01 7.50D-01
 SVDSVc V= 6.62D-01 6.05D-01 5.78D-01 5.58D-01 4.70D-01 4.60D-01 4.52D-01 3.34D-01 3.32D-01 2.88D-01
[...]
     12  0.000000D+00  0.944863D+01
     13  0.000000D+00  0.000000D+00  0.944863D+01
     14  0.000000D+00  0.000000D+00  0.802465D-01  0.944863D+01
     15  0.000000D+00  0.000000D+00  0.802465D-01  0.314954D+01  0.944863D+01
     16  0.000000D+00  0.000000D+00  0.240740D+00  0.314954D+01  0.314954D+01
     17  0.000000D+00  0.000000D+00  0.000000D+00  0.000000D+00  0.000000D+00
     18  0.138991D+00  0.000000D+00  0.000000D+00  0.000000D+00  0.000000D+00
     19  0.000000D+00  0.138991D+00  0.000000D+00  0.000000D+00  0.000000D+00
     20 -0.524929D+00  0.000000D+00  0.242721D-02  0.497722D+00  0.107034D-01
     21 -0.286922D+01  0.000000D+00  0.116857D+00  0.315964D+01  0.877074D+00
     22  0.565521D+00  0.000000D+00  0.223529D-01  0.391056D+01  0.134322D+01
     23  0.000000D+00  0.119555D+01  0.000000D+00  0.000000D+00  0.000000D+00
     24 -0.299370D+00  0.000000D+00  0.119555D+01  0.153788D+00  0.349443D-01
     25 -0.463963D+01  0.000000D+00  0.572335D+00  0.333677D+01  0.241807D+01
     26  0.244511D+01  0.000000D+00  0.246390D+00  0.399652D+01  0.417111D+01
     27  0.000000D+00  0.444248D+01  0.000000D+00  0.000000D+00  0.000000D+00
     28 -0.949078D+00  0.000000D+00  0.444248D+01  0.149740D+00  0.108513D+00
     29 -0.436415D+01  0.000000D+00  0.207369D+01  0.240595D+01  0.233725D+01
     30  0.587896D+01  0.000000D+00  0.110348D+01  0.216942D+01  0.235833D+01
     31  0.000000D+00  0.820126D+01  0.000000D+00  0.000000D+00  0.000000D+00
     32 -0.110348D+01  0.000000D+00  0.820126D+01  0.631562D-01  0.613526D-01
     33 -0.216942D+01  0.000000D+00  0.631562D-01  0.460352D+01  0.146419D+01
     34 -0.235833D+01  0.000000D+00  0.613526D-01  0.146419D+01  0.711697D+00
     35 -0.235833D+01  0.000000D+00  0.184058D+00  0.146419D+01  0.237232D+00
     36  0.000000D+00  0.223640D+00  0.000000D+00  0.000000D+00  0.000000D+00
     37  0.492084D-01  0.000000D+00  0.223640D+00  0.230652D+00  0.552863D-01
     38  0.000000D+00  0.106266D+00  0.000000D+00  0.000000D+00  0.000000D+00
     39  0.119328D+01  0.978709D+00  0.176850D+01  0.210824D+01  0.180337D+01
     40  0.241793D+01  0.198315D+01  0.408842D+01  0.360512D+01  0.353544D+01
     41  0.877780D+00 -0.719943D+00 -0.117365D+01  0.180594D+01  0.154731D+01
     42  0.187172D+01 -0.153516D+01 -0.200548D+01  0.341444D+01  0.334844D+01
     43 -0.245194D+01  0.598339D+00  0.108127D+01  0.139557D+00  0.237234D-01
     44 -0.538622D+01  0.131438D+01  0.270970D+01  0.116723D+01  0.711834D+00
     45 -0.180372D+01 -0.440158D+00 -0.717458D+00  0.120714D+00  0.205301D-01
     46 -0.416947D+01 -0.101746D+01 -0.132918D+01  0.110549D+01  0.674183D+00
               16            17            18            19            20
     16  0.944863D+01
     17  0.000000D+00  0.944863D+01
     18  0.000000D+00  0.000000D+00  0.944863D+01
     19  0.000000D+00  0.000000D+00  0.000000D+00  0.944863D+01
     20  0.107034D-01  0.000000D+00 -0.406730D-02  0.000000D+00  0.944863D+01
     21  0.877074D+00  0.000000D+00 -0.163715D+00  0.000000D+00  0.206981D+01
     22  0.134322D+01  0.000000D+00 -0.199928D+00  0.000000D+00  0.000000D+00
     23  0.000000D+00 -0.173280D+01  0.000000D+00  0.605253D-01  0.000000D+00
     24  0.104833D+00  0.000000D+00 -0.173280D+01  0.000000D+00  0.948317D-01
     25  0.241807D+01  0.000000D+00 -0.196291D+00  0.000000D+00  0.174102D+01
     26  0.417111D+01  0.000000D+00 -0.150646D+00  0.000000D+00  0.000000D+00
     27  0.000000D+00 -0.152361D+01  0.000000D+00  0.187950D+00  0.000000D+00
     28  0.325538D+00  0.000000D+00 -0.152361D+01  0.000000D+00  0.159312D-01
     29  0.233725D+01  0.000000D+00 -0.565474D-01  0.000000D+00  0.659248D+00
     30  0.235833D+01  0.000000D+00  0.492084D-01  0.000000D+00  0.000000D+00
     31  0.000000D+00 -0.223640D+00  0.000000D+00  0.106266D+00  0.000000D+00
     32  0.184058D+00  0.000000D+00 -0.223640D+00  0.000000D+00  0.321073D-02
     33  0.146419D+01  0.000000D+00 -0.230652D+00  0.000000D+00  0.747412D+00
     34  0.237232D+00  0.000000D+00 -0.552863D-01  0.000000D+00  0.747412D+00
     35  0.711697D+00  0.000000D+00 -0.165859D+00  0.000000D+00  0.747412D+00
     36  0.000000D+00 -0.296916D+01  0.000000D+00  0.957588D-01  0.000000D+00
     37  0.165859D+00  0.000000D+00 -0.296916D+01  0.000000D+00  0.000000D+00
     38  0.000000D+00 -0.957588D-01  0.000000D+00  0.711697D+00  0.000000D+00
     39  0.321762D+01  0.132327D+01  0.239013D+01  0.196036D+01  0.416334D-03
     40  0.400130D+01  0.302443D+00  0.633227D+00  0.519364D+00  0.135669D+00
     41  0.244945D+01 -0.112258D+01 -0.184620D+01  0.151423D+01  0.397254D-03
     42  0.344030D+01 -0.286446D+00 -0.386759D+00  0.317214D+00  0.134150D+00
     43  0.405949D-01 -0.520592D-01 -0.946818D-01  0.231049D-01  0.309053D+00
     44  0.805631D+00 -0.204669D+00 -0.428517D+00  0.104570D+00  0.870903D+00
     45  0.310151D-01  0.450259D-01  0.734747D-01  0.179298D-01  0.296651D+00
     46  0.692678D+00  0.193844D+00  0.261727D+00  0.638686D-01  0.861302D+00
               21            22            23            24            25
     21  0.944863D+01
     22  0.000000D+00  0.944863D+01
     23  0.000000D+00  0.000000D+00  0.944863D+01
     24  0.685407D+00  0.000000D+00  0.000000D+00  0.944863D+01
     25  0.767487D+01  0.000000D+00  0.000000D+00  0.693556D+00  0.944863D+01
     26  0.000000D+00  0.538340D+01  0.000000D+00  0.000000D+00  0.000000D+00
     27  0.000000D+00  0.000000D+00  0.538340D+01  0.000000D+00  0.000000D+00
     28  0.502210D+00  0.000000D+00  0.000000D+00  0.538340D+01  0.121729D+01
     29  0.379921D+01  0.000000D+00  0.000000D+00  0.393432D+00  0.687545D+01
     30  0.000000D+00  0.155599D+01  0.000000D+00  0.000000D+00  0.000000D+00
     31  0.000000D+00  0.000000D+00  0.155599D+01  0.000000D+00  0.000000D+00
     32  0.151825D+00  0.000000D+00  0.000000D+00  0.155599D+01  0.716606D+00
     33  0.671075D+01  0.000000D+00  0.000000D+00  0.322914D+00  0.595204D+01
     34  0.671075D+01  0.000000D+00  0.000000D+00  0.322914D+00  0.595204D+01
     35  0.671075D+01  0.000000D+00  0.000000D+00  0.968741D+00  0.595204D+01
     36  0.000000D+00  0.000000D+00  0.000000D+00  0.000000D+00  0.000000D+00
     37  0.000000D+00  0.559303D+00  0.000000D+00  0.000000D+00  0.000000D+00
     38  0.000000D+00  0.000000D+00  0.559303D+00  0.000000D+00  0.000000D+00
     39  0.812016D-01  0.156889D+00  0.382853D-01  0.695549D-01  0.790929D+00
     40  0.107833D+01  0.998253D+00  0.243601D+00  0.509378D+00  0.267533D+01
     41  0.680047D-01  0.131568D+00 -0.321063D-01 -0.523669D-01  0.608861D+00
     42  0.997985D+00  0.931091D+00 -0.227212D+00 -0.306093D+00  0.228297D+01
     43  0.280077D+01 -0.195982D+01  0.160742D+01  0.290963D+01  0.400757D+01
     44  0.465464D+01 -0.135116D+01  0.110821D+01  0.231756D+01  0.716140D+01
     45  0.231404D+01 -0.164323D+01 -0.134775D+01 -0.220889D+01  0.308109D+01
     46  0.430194D+01 -0.126194D+01 -0.103503D+01 -0.139463D+01  0.611111D+01
               26            27            28            29            30
     26  0.944863D+01
     27  0.000000D+00  0.944863D+01
     28  0.000000D+00  0.000000D+00  0.944863D+01
     29  0.000000D+00  0.000000D+00  0.140644D+01  0.944863D+01
     30  0.556232D+01  0.000000D+00  0.000000D+00  0.000000D+00  0.944863D+01
     31  0.000000D+00  0.556232D+01  0.000000D+00  0.000000D+00  0.000000D+00
     32  0.000000D+00  0.000000D+00  0.556232D+01  0.238909D+01  0.000000D+00
     33  0.000000D+00  0.000000D+00  0.267102D+00  0.305701D+01  0.000000D+00
     34  0.000000D+00  0.000000D+00  0.267102D+00  0.305701D+01  0.000000D+00
     35  0.000000D+00  0.000000D+00  0.801306D+00  0.305701D+01  0.000000D+00
     36  0.000000D+00  0.000000D+00  0.000000D+00  0.000000D+00  0.000000D+00
     37  0.462634D+00  0.000000D+00  0.000000D+00  0.000000D+00  0.138991D+00
     38  0.000000D+00  0.462634D+00  0.000000D+00  0.000000D+00  0.000000D+00
     39  0.188979D+01  0.461161D+00  0.834224D+00  0.172071D+01  0.245194D+01
     40  0.388783D+01  0.948736D+00  0.196985D+01  0.452073D+01  0.538622D+01
     41  0.145376D+01 -0.354758D+00 -0.578990D+00  0.126590D+01  0.180372D+01
     42  0.331764D+01 -0.809596D+00 -0.107567D+01  0.349950D+01  0.416947D+01
     43 -0.286301D+01  0.234820D+01  0.424327D+01  0.281426D+01 -0.119328D+01
     44 -0.309637D+01  0.253960D+01  0.527295D+01  0.682092D+01 -0.241793D+01
     45 -0.219917D+01 -0.180373D+01 -0.294809D+01  0.207034D+01 -0.877780D+00
     46 -0.264226D+01 -0.216714D+01 -0.287937D+01  0.528007D+01 -0.187172D+01
               31            32            33            34            35
     31  0.944863D+01
     32  0.000000D+00  0.944863D+01
     33  0.000000D+00  0.802465D-01  0.944863D+01
     34  0.000000D+00  0.802465D-01  0.314954D+01  0.944863D+01
     35  0.000000D+00  0.240740D+00  0.314954D+01  0.314954D+01  0.944863D+01
     36  0.000000D+00  0.000000D+00  0.000000D+00  0.000000D+00  0.000000D+00
     37  0.000000D+00  0.000000D+00  0.000000D+00  0.000000D+00  0.000000D+00
     38  0.138991D+00  0.000000D+00  0.000000D+00  0.000000D+00  0.000000D+00
     39  0.598339D+00  0.108127D+01  0.139557D+00  0.237234D-01  0.405949D-01
     40  0.131438D+01  0.270970D+01  0.116723D+01  0.711834D+00  0.805631D+00
     41 -0.440158D+00 -0.717458D+00  0.120714D+00  0.205301D-01  0.310151D-01
     42 -0.101746D+01 -0.132918D+01  0.110549D+01  0.674183D+00  0.692678D+00
     43  0.978709D+00  0.176850D+01  0.210824D+01  0.180337D+01  0.321762D+01
     44  0.198315D+01  0.408842D+01  0.360512D+01  0.353544D+01  0.400130D+01
     45 -0.719943D+00 -0.117365D+01  0.180594D+01  0.154731D+01  0.244945D+01
     46 -0.153516D+01 -0.200548D+01  0.341444D+01  0.334844D+01  0.344030D+01
               36            37            38            39            40
     36  0.944863D+01
     37  0.000000D+00  0.944863D+01
     38  0.000000D+00  0.000000D+00  0.944863D+01
     39  0.520592D-01  0.946818D-01  0.231049D-01  0.109785D+02
     40  0.204669D+00  0.428517D+00  0.104570D+00  0.722705D+01  0.109785D+02
     41 -0.450259D-01 -0.734747D-01  0.179298D-01  0.118862D+00  0.108751D+01
     42 -0.193844D+00 -0.261727D+00  0.638686D-01  0.133154D+01  0.345318D+01
     43 -0.132327D+01 -0.239013D+01  0.196036D+01  0.627579D-02  0.402205D+00
     44 -0.302443D+00 -0.633227D+00  0.519364D+00  0.402205D+00  0.185397D+01
     45  0.112258D+01  0.184620D+01  0.151423D+01  0.989873D-04  0.613277D-01
     46  0.286446D+00  0.386759D+00  0.317214D+00  0.748449D-01  0.583148D+00
               41            42            43            44            45
     41  0.791877D+01
     42  0.521286D+01  0.791877D+01
     43  0.989873D-04  0.748449D-01  0.109785D+02
     44  0.613277D-01  0.583148D+00  0.722705D+01  0.109785D+02
     45  0.452672D-02  0.290110D+00  0.118862D+00  0.108751D+01  0.791877D+01
     46  0.290110D+00  0.133726D+01  0.133154D+01  0.345318D+01  0.521286D+01
               46
     46  0.791877D+01
 Fermi contact integrals: 
               1            2            3            4            5
      1 0.758902D+01 0.000000D+00 0.000000D+00 0.000000D+00 0.000000D+00
      2-0.673212D-01 0.153063D-01 0.502053D-01 0.502053D-01 0.756427D-04
      3 0.000000D+00-0.373935D-01 0.523278D-01 0.523278D-01-0.262955D-03
      4 0.000000D+00 0.000000D+00 0.429186D-01-0.429186D-01 0.641681D-04
      5 0.000000D+00 0.000000D+00 0.743371D-01-0.743371D-01 0.111143D-03
      6 0.187618D+00 0.630344D-01 0.911267D-01 0.911267D-01 0.121531D-01
      7 0.000000D+00-0.131664D+00 0.806176D-01 0.806176D-01-0.361366D-01
      8 0.000000D+00 0.000000D+00 0.661214D-01-0.661214D-01 0.881830D-02
      9 0.000000D+00 0.000000D+00 0.114526D+00-0.114526D+00 0.152738D-01
     10 0.682363D-01 0.514090D-01 0.565711D-01 0.565711D-01 0.335310D-01
     11 0.000000D+00-0.547127D-01 0.254999D-01 0.254999D-01-0.508002D-01
     12 0.000000D+00 0.000000D+00 0.209147D-01-0.209147D-01 0.123966D-01
     13 0.000000D+00 0.000000D+00 0.362254D-01-0.362254D-01 0.214716D-01
     14 0.000000D+00 0.408539D-01 0.420753D-01 0.420753D-01 0.337410D-04
     15 0.000000D+00 0.000000D+00 0.283043D-01 0.283043D-01 0.200925D-05
     16 0.000000D+00 0.000000D+00 0.849131D-01 0.849131D-01 0.602776D-05
     17 0.000000D+00 0.000000D+00 0.597724D-01-0.597724D-01-0.142612D-04
     18 0.000000D+00 0.000000D+00 0.103529D+00-0.103529D+00-0.247011D-04
     19 0.000000D+00 0.000000D+00 0.849130D-01 0.849130D-01 0.602775D-05
     20 0.000000D+00 0.758902D+01 0.000000D+00 0.000000D+00 0.000000D+00
     21 0.153063D-01-0.673212D-01 0.756427D-04 0.756427D-04 0.502053D-01
     22 0.373935D-01 0.000000D+00 0.262955D-03 0.262955D-03-0.523278D-01
     23 0.000000D+00 0.000000D+00 0.641681D-04-0.641681D-04 0.429186D-01
     24 0.000000D+00 0.000000D+00 0.111143D-03-0.111143D-03 0.743371D-01
     25 0.630344D-01 0.187618D+00 0.121531D-01 0.121531D-01 0.911267D-01
     26 0.131664D+00 0.000000D+00 0.361366D-01 0.361366D-01-0.806176D-01
     27 0.000000D+00 0.000000D+00 0.881830D-02-0.881830D-02 0.661214D-01
     28 0.000000D+00 0.000000D+00 0.152738D-01-0.152738D-01 0.114526D+00
     29 0.514090D-01 0.682363D-01 0.335310D-01 0.335310D-01 0.565711D-01
     30 0.547127D-01 0.000000D+00 0.508002D-01 0.508002D-01-0.254999D-01
     31 0.000000D+00 0.000000D+00 0.123966D-01-0.123966D-01 0.209147D-01
     32 0.000000D+00 0.000000D+00 0.214716D-01-0.214716D-01 0.362254D-01
     33 0.408539D-01 0.000000D+00 0.337410D-04 0.337410D-04 0.420753D-01
     34 0.000000D+00 0.000000D+00 0.200925D-05 0.200925D-05 0.283043D-01
     35 0.000000D+00 0.000000D+00 0.602776D-05 0.602776D-05 0.849131D-01
     36 0.000000D+00 0.000000D+00 0.142612D-04-0.142612D-04-0.597724D-01
     37 0.000000D+00 0.000000D+00 0.247011D-04-0.247011D-04-0.103529D+00
     38 0.000000D+00 0.000000D+00 0.602775D-05 0.602775D-05 0.849130D-01
     39 0.268036D-01 0.128373D-04 0.994558D+00 0.140590D-03 0.000000D+00
     40 0.909467D-01 0.132555D-01 0.181381D+00 0.242266D-01 0.517260D-02
     41 0.268036D-01 0.128373D-04 0.140590D-03 0.994558D+00 0.000000D+00
     42 0.909467D-01 0.132555D-01 0.242266D-01 0.181381D+00 0.690893D-03
     43 0.128373D-04 0.268036D-01 0.000000D+00 0.000000D+00 0.994558D+00
     44 0.132555D-01 0.909467D-01 0.517260D-02 0.690893D-03 0.181381D+00
     45 0.128373D-04 0.268036D-01 0.000000D+00 0.000000D+00 0.140590D-03
     46 0.132555D-01 0.909467D-01 0.690893D-03 0.517260D-02 0.242266D-01
               6
      1 0.000000D+00
      2 0.756427D-04
      3-0.262955D-03
      4-0.641681D-04
      5-0.111143D-03
      6 0.121531D-01
      7-0.361366D-01
      8-0.881830D-02
      9-0.152738D-01
     10 0.335310D-01
     11-0.508002D-01
     12-0.123966D-01
     13-0.214716D-01
     14 0.337410D-04
     15 0.200925D-05
     16 0.602776D-05
     17 0.142612D-04
     18 0.247011D-04
     19 0.602775D-05
     20 0.000000D+00
     21 0.502053D-01
     22-0.523278D-01
     23-0.429186D-01
     24-0.743371D-01
     25 0.911267D-01
     26-0.806176D-01
     27-0.661214D-01
     28-0.114526D+00
     29 0.565711D-01
     30-0.254999D-01
     31-0.209147D-01
     32-0.362254D-01
     33 0.420753D-01
     34 0.283043D-01
     35 0.849131D-01
     36 0.597724D-01
     37 0.103529D+00
     38 0.849130D-01
     39 0.000000D+00
     40 0.690893D-03
     41 0.000000D+00
     42 0.517260D-02
     43 0.140590D-03
     44 0.242266D-01
     45 0.994558D+00
     46 0.181381D+00
 Harris functional with IExCor=  402 diagonalized for initial guess.
 ExpMin= 4.38D-02 ExpMax= 3.05D+03 ExpMxC= 4.57D+02 IAcc=2 IRadAn=         4 AccDes= 0.00D+00
 HarFok:  IExCor= 402 AccDes= 0.00D+00 IRadAn=         4 IDoV=1
 ScaDFX=  1.000000  1.000000  1.000000  1.000000
 Requested convergence on RMS density matrix=1.00D-08 within 128 cycles.
 Requested convergence on MAX density matrix=1.00D-06.
 Requested convergence on             energy=1.00D-06.
 No special actions if energy rises.
 Keep R1 integrals in memory in canonical form, NReq=     1532902.
 SCF Done:  E(RB+HF-LYP) =  -78.5929861748     A.U. after    8 cycles
             Convg  =    0.1488D-08             -V/T =  2.0119
             S**2   =   0.0000

 **********************************************************************

            Population analysis using the SCF density.

 **********************************************************************

 Alpha  occ. eigenvalues --  -10.19871 -10.19790  -0.76206  -0.58448  -0.47268
 Alpha  occ. eigenvalues --   -0.42268  -0.36322  -0.27596
 Alpha virt. eigenvalues --   -0.00988   0.02502   0.03257   0.04671   0.06955
 Alpha virt. eigenvalues --    0.08672   0.08746   0.12752   0.15668   0.17641
 Alpha virt. eigenvalues --    0.19040   0.24303   0.34233   0.34755   0.57994
 Alpha virt. eigenvalues --    0.65785   0.67469   0.71916   0.75677   0.81962
 Alpha virt. eigenvalues --    0.89952   0.93643   0.96324   1.00218   1.16203
 Alpha virt. eigenvalues --    1.21969   1.44779   1.53897   1.81652   1.88523
 Alpha virt. eigenvalues --    1.99937   2.10768   2.29199   2.37010   2.66502
 Alpha virt. eigenvalues --    2.70045   4.11589   4.25146
          Condensed to atoms (all electrons):
              1          2          3          4          5          6
     1  C    5.006806   0.666570   0.382561   0.382561  -0.036205  -0.036205
     2  C    0.666570   5.006806  -0.036205  -0.036205   0.382561   0.382561
     3  H    0.382561  -0.036205   0.506604  -0.033238  -0.006694   0.003928
     4  H    0.382561  -0.036205  -0.033238   0.506604   0.003928  -0.006694
     5  H   -0.036205   0.382561  -0.006694   0.003928   0.506604  -0.033238
     6  H   -0.036205   0.382561   0.003928  -0.006694  -0.033238   0.506604
 Mulliken atomic charges:
              1
     1  C   -0.366088
     2  C   -0.366088
     3  H    0.183044
     4  H    0.183044
     5  H    0.183044
     6  H    0.183044
 Sum of Mulliken charges=   0.00000
 Atomic charges with hydrogens summed into heavy atoms:
              1
     1  C    0.000000
     2  C    0.000000
     3  H    0.000000
     4  H    0.000000
     5  H    0.000000
     6  H    0.000000
 Sum of Mulliken charges=   0.00000
 Electronic spatial extent (au):  <R**2>=  1512.8232
 Charge=     0.0000 electrons
 Dipole moment (field-independent basis, Debye):
    X=     0.0000    Y=     0.0000    Z=     0.0000  Tot=     0.0000
 Quadrupole moment (field-independent basis, Debye-Ang):
   XX=   -12.4310   YY=   -15.2042   ZZ=   -13.3391
   XY=     0.0000   XZ=     0.0000   YZ=     1.6149
 Traceless Quadrupole moment (field-independent basis, Debye-Ang):
   XX=     1.2271   YY=    -1.5461   ZZ=     0.3190
   XY=     0.0000   XZ=     0.0000   YZ=     1.6149
 Octapole moment (field-independent basis, Debye-Ang**2):
  XXX=     0.0000  YYY=     0.0000  ZZZ=  -200.0871  XYY=     0.0000
  XXY=     0.0000  XXZ=   -62.1552  XZZ=     0.0000  YZZ=    16.1493
  YYZ=   -76.0211  XYZ=     0.0000
 Hexadecapole moment (field-independent basis, Debye-Ang**3):
 XXXX=   -71.8902 YYYY=   -24.8577 ZZZZ= -2028.7699 XXXY=     0.0000
 XXXZ=     0.0000 YYYX=     0.0000 YYYZ=    -1.7351 ZZZX=     0.0000
 ZZZY=   120.2188 XXYY=   -16.1808 XXZZ=  -325.6672 YYZZ=  -388.5775
 XXYZ=     1.1163 YYXZ=     0.0000 ZZXY=     0.0000
 N-N= 3.305010011012D+01 E-N=-2.472640367646D+02  KE= 7.767045557288D+01

 Test job not archived.
 1\1\GINC-RHUBARB\SP\RB3LYP\6-31+G(d)\C2H4\JK905\09-Nov-2007\0\\#B3LYP/
 6-31+G* SCF=TIGHT NOSYMM PUNCH=MO IOP(3/33=1)\\9_11_07\\0,1\C,0,0.6727
 49,0.,5.\C,0,-0.672749,0.,5.\H,0,1.242623,0.467403,5.809566\H,0,1.2426
 23,-0.467403,4.190434\H,0,-1.242623,0.467403,5.809566\H,0,-1.242623,-0
 .467403,4.190434\\Version=x86_64-Linux-G03RevB.05\HF=-78.5929862\RMSD=
 1.488e-09\Dipole=0.,0.,0.\PG=D02H [C2"(C1.C1),SG(H4)]\\@


 IBM COMPATIBILITY IS LIKE PREGNANCY. YOU ARE OR
 OR YOU ARE NOT. -- ADAM OSBORNE
 Job cpu time:  0 days  0 hours  0 minutes 10.2 seconds.
 File lengths (MBytes):  RWF=     13 Int=      0 D2E=      0 Chk=     10 Scr=      1
 Normal termination of Gaussian 03 at Fri Nov  9 15:52:30 2007.
