 Entering Gaussian System, Link 0=/home/apps/gaussian_6_9/g09/g09
 Initial command:
 /home/apps/gaussian_6_9/g09/l1.exe /scratch/Gau-23630.inp -scrdir=/scratch/
 Entering Link 1 = /home/apps/gaussian_6_9/g09/l1.exe PID=     23631.
  
 Copyright (c) 1988,1990,1992,1993,1995,1998,2003,2009, Gaussian, Inc.
                  All Rights Reserved.
  
 This is part of the Gaussian(R) 09 program.  It is based on
 the Gaussian(R) 03 system (copyright 2003, Gaussian, Inc.),
 the Gaussian(R) 98 system (copyright 1998, Gaussian, Inc.),
 the Gaussian(R) 94 system (copyright 1995, Gaussian, Inc.),
 the Gaussian 92(TM) system (copyright 1992, Gaussian, Inc.),
 the Gaussian 90(TM) system (copyright 1990, Gaussian, Inc.),
 the Gaussian 88(TM) system (copyright 1988, Gaussian, Inc.),
 the Gaussian 86(TM) system (copyright 1986, Carnegie Mellon
 University), and the Gaussian 82(TM) system (copyright 1983,
 Carnegie Mellon University). Gaussian is a federally registered
 trademark of Gaussian, Inc.
  
 This software contains proprietary and confidential information,
 including trade secrets, belonging to Gaussian, Inc.
  
 This software is provided under written license and may be
 used, copied, transmitted, or stored only in accord with that
 written license.
  
 The following legend is applicable only to US Government
 contracts under FAR:
  
                    RESTRICTED RIGHTS LEGEND
  
 Use, reproduction and disclosure by the US Government is
 subject to restrictions as set forth in subparagraphs (a)
 and (c) of the Commercial Computer Software - Restricted
 Rights clause in FAR 52.227-19.
  
 Gaussian, Inc.
 340 Quinnipiac St., Bldg. 40, Wallingford CT 06492
  
  
 ---------------------------------------------------------------
 Warning -- This program may not be used in any manner that
 competes with the business of Gaussian, Inc. or will provide
 assistance to any competitor of Gaussian, Inc.  The licensee
 of this program is prohibited from giving any competitor of
 Gaussian, Inc. access to this program.  By using this program,
 the user acknowledges that Gaussian, Inc. is engaged in the
 business of creating and licensing software in the field of
 computational chemistry and represents and warrants to the
 licensee that it is not a competitor of Gaussian, Inc. and that
 it will not use this program in any manner prohibited above.
 ---------------------------------------------------------------
  

 Cite this work as:
 Gaussian 09, Revision A.01,
 M. J. Frisch, G. W. Trucks, H. B. Schlegel, G. E. Scuseria, 
 M. A. Robb, J. R. Cheeseman, G. Scalmani, V. Barone, B. Mennucci, 
 G. A. Petersson, H. Nakatsuji, M. Caricato, X. Li, H. P. Hratchian, 
 A. F. Izmaylov, J. Bloino, G. Zheng, J. L. Sonnenberg, M. Hada, 
 M. Ehara, K. Toyota, R. Fukuda, J. Hasegawa, M. Ishida, T. Nakajima, 
 Y. Honda, O. Kitao, H. Nakai, T. Vreven, J. A. Montgomery, Jr., 
 J. E. Peralta, F. Ogliaro, M. Bearpark, J. J. Heyd, E. Brothers, 
 K. N. Kudin, V. N. Staroverov, R. Kobayashi, J. Normand, 
 K. Raghavachari, A. Rendell, J. C. Burant, S. S. Iyengar, J. Tomasi, 
 M. Cossi, N. Rega, J. M. Millam, M. Klene, J. E. Knox, J. B. Cross, 
 V. Bakken, C. Adamo, J. Jaramillo, R. Gomperts, R. E. Stratmann, 
 O. Yazyev, A. J. Austin, R. Cammi, C. Pomelli, J. W. Ochterski, 
 R. L. Martin, K. Morokuma, V. G. Zakrzewski, G. A. Voth, 
 P. Salvador, J. J. Dannenberg, S. Dapprich, A. D. Daniels, 
 O. Farkas, J. B. Foresman, J. V. Ortiz, J. Cioslowski, 
 and D. J. Fox, Gaussian, Inc., Wallingford CT, 2009.
 
 ******************************************
 Gaussian 09:  EM64L-G09RevA.01  8-May-2009
                22-Mar-2018 
 ******************************************
 %nprocshared=2
 Will use up to    2 processors via shared memory.
 %mem=1GB
 -------------------------------------------------------------
 #b3lyp/6-31+g* scf=tight nosymm punch=mo iop(3/33=1) pop=full
 -------------------------------------------------------------
 1/38=1/1;
 2/12=2,15=1,17=6,18=5,40=1/2;
 3/5=1,6=6,7=11,11=2,16=1,25=1,30=1,33=1,74=-5/1,2,3;
 4//1;
 5/5=2,32=2,38=5/2;
 6/7=3,28=1/1;
 99/5=1,9=1,10=32/99;
 -------
 9_11_07
 -------
 Symbolic Z-matrix:
 Charge =  0 Multiplicity = 1
 H                     1.24262   0.        4.06519 
 C                     0.67275   0.        0. 
 H                     1.24262  -0.93481   0. 
 C                    -0.67275   0.        0. 
 H                    -1.24262   0.        5.93481 
 H                     1.24262   0.93481   0. 
 C                     0.67275   0.        5. 
 H                    -1.24262   0.93481   0. 
 H                    -1.24262  -0.93481   0. 
 C                    -0.67275   0.        5. 
 H                     1.24262   0.        5.93481 
 H                    -1.24262   0.        4.06519 
 
                          Input orientation:                          
 ---------------------------------------------------------------------
 Center     Atomic      Atomic             Coordinates (Angstroms)
 Number     Number       Type             X           Y           Z
 ---------------------------------------------------------------------
      1          1           0        1.242623    0.000000    4.065194
      2          6           0        0.672749    0.000000    0.000000
      3          1           0        1.242623   -0.934806    0.000000
      4          6           0       -0.672749    0.000000    0.000000
      5          1           0       -1.242623    0.000000    5.934806
      6          1           0        1.242623    0.934806    0.000000
      7          6           0        0.672749    0.000000    5.000000
      8          1           0       -1.242623    0.934806    0.000000
      9          1           0       -1.242623   -0.934806    0.000000
     10          6           0       -0.672749    0.000000    5.000000
     11          1           0        1.242623    0.000000    5.934806
     12          1           0       -1.242623    0.000000    4.065194
 ---------------------------------------------------------------------
                    Distance matrix (angstroms):
                    1          2          3          4          5
     1  H    0.000000
     2  C    4.104943   0.000000
     3  H    4.171291   1.094814   0.000000
     4  C    4.493824   1.345498   2.131317   0.000000
     5  H    3.109967   6.236231   6.501710   5.962104   0.000000
     6  H    4.171291   1.094814   1.869612   2.131317   6.501710
     7  C    1.094814   5.000000   5.118459   5.177873   2.131317
     8  H    4.855524   2.131317   3.109967   1.094814   6.007977
     9  H    4.855524   2.131317   2.485246   1.094814   6.007977
    10  C    2.131317   5.177873   5.435302   5.000000   1.094814
    11  H    1.869612   5.962104   6.007977   6.236231   2.485246
    12  H    2.485246   4.493824   4.855524   4.104943   1.869612
                    6          7          8          9         10
     6  H    0.000000
     7  C    5.118459   0.000000
     8  H    2.485246   5.435302   0.000000
     9  H    3.109967   5.435302   1.869612   0.000000
    10  C    5.435302   1.345498   5.118459   5.118459   0.000000
    11  H    6.007977   1.094814   6.501710   6.501710   2.131317
    12  H    4.855524   2.131317   4.171291   4.171291   1.094814
                   11         12
    11  H    0.000000
    12  H    3.109967   0.000000
 Symmetry turned off by external request.
 Stoichiometry    C4H8
 Framework group  C2V[SGV(C4H4),X(H4)]
 Deg. of freedom    10
 Full point group                 C2V     NOp   4
 Rotational constants (GHZ):     13.4064391      1.4138973      1.3022279
 Standard basis: 6-31+G(d) (6D, 7F)
                         Coordinates in L301:                         
 ---------------------------------------------------------------------
 Center     Atomic      Atomic             Coordinates (Angstroms)
 Number     Number       Type             X           Y           Z
 ---------------------------------------------------------------------
      1          1           0        1.242623    0.000000    4.065194
      2          6           0        0.672749    0.000000    0.000000
      3          1           0        1.242623   -0.934806    0.000000
      4          6           0       -0.672749    0.000000    0.000000
      5          1           0       -1.242623    0.000000    5.934806
      6          1           0        1.242623    0.934806    0.000000
      7          6           0        0.672749    0.000000    5.000000
      8          1           0       -1.242623    0.934806    0.000000
      9          1           0       -1.242623   -0.934806    0.000000
     10          6           0       -0.672749    0.000000    5.000000
     11          1           0        1.242623    0.000000    5.934806
     12          1           0       -1.242623    0.000000    4.065194
 ---------------------------------------------------------------------
 FixB: optimizing general contractions.
 Ernie: Thresh=  0.10000D-02 Tol=  0.10000D-05 Strict=F.
 IA=     1 NL=   2 NS=   1.
 IA=     1 L=0 SC=0 ISt=    0 NBk=    0 NP=    0 IndPr=    0.
 IA=     2 NL=   1 NS=   0.
 IA=     2 L=0 SC=0 ISt=    0 NBk=    0 NP=    0 IndPr=    0.
 IA=     2 NL=   3 NS=   2.
 IA=     2 L=1 SC=0 ISt=    0 NBk=    0 NP=    0 IndPr=    0.
 IA=     2 NL=   1 NS=   1.
 IA=     2 L=2 SC=2 ISt=    0 NBk=    0 NP=    0 IndPr=    0.
 IA=     3 NL=   2 NS=   1.
 IA=     3 L=0 SC=0 ISt=    0 NBk=    0 NP=    0 IndPr=    0.
 IA=     4 NL=   1 NS=   0.
 IA=     4 L=0 SC=0 ISt=    0 NBk=    0 NP=    0 IndPr=    0.
 IA=     4 NL=   3 NS=   2.
 IA=     4 L=1 SC=0 ISt=    0 NBk=    0 NP=    0 IndPr=    0.
 IA=     4 NL=   1 NS=   1.
 IA=     4 L=2 SC=2 ISt=    0 NBk=    0 NP=    0 IndPr=    0.
 IA=     5 NL=   2 NS=   1.
 IA=     5 L=0 SC=0 ISt=    0 NBk=    0 NP=    0 IndPr=    0.
 IA=     6 NL=   2 NS=   1.
 IA=     6 L=0 SC=0 ISt=    0 NBk=    0 NP=    0 IndPr=    0.
 IA=     7 NL=   1 NS=   0.
 IA=     7 L=0 SC=0 ISt=    0 NBk=    0 NP=    0 IndPr=    0.
 IA=     7 NL=   3 NS=   2.
 IA=     7 L=1 SC=0 ISt=    0 NBk=    0 NP=    0 IndPr=    0.
 IA=     7 NL=   1 NS=   1.
 IA=     7 L=2 SC=2 ISt=    0 NBk=    0 NP=    0 IndPr=    0.
 IA=     8 NL=   2 NS=   1.
 IA=     8 L=0 SC=0 ISt=    0 NBk=    0 NP=    0 IndPr=    0.
 IA=     9 NL=   2 NS=   1.
 IA=     9 L=0 SC=0 ISt=    0 NBk=    0 NP=    0 IndPr=    0.
 IA=    10 NL=   1 NS=   0.
 IA=    10 L=0 SC=0 ISt=    0 NBk=    0 NP=    0 IndPr=    0.
 IA=    10 NL=   3 NS=   2.
 IA=    10 L=1 SC=0 ISt=    0 NBk=    0 NP=    0 IndPr=    0.
 IA=    10 NL=   1 NS=   1.
 IA=    10 L=2 SC=2 ISt=    0 NBk=    0 NP=    0 IndPr=    0.
 IA=    11 NL=   2 NS=   1.
 IA=    11 L=0 SC=0 ISt=    0 NBk=    0 NP=    0 IndPr=    0.
 IA=    12 NL=   2 NS=   1.
 IA=    12 L=0 SC=0 ISt=    0 NBk=    0 NP=    0 IndPr=    0.
 LdAtmC:  AtmChg=     1.000000     6.000000     1.000000     6.000000     1.000000
 LdAtmC:  AtmChg=     1.000000     6.000000     1.000000     1.000000     6.000000
 LdAtmC:  AtmChg=     1.000000     1.000000
 AtZEff=     -1.0000000     -3.6000000     -1.0000000     -3.6000000     -1.0000000
 AtZEff=     -1.0000000     -3.6000000     -1.0000000     -1.0000000     -3.6000000
 AtZEff=     -1.0000000     -1.0000000
 Integral buffers will be    131072 words long.
 Raffenetti 2 integral format.
 Two-electron integral symmetry is turned off.
    92 basis functions,   160 primitive gaussians,    92 cartesian basis functions
    16 alpha electrons       16 beta electrons
       nuclear repulsion energy        92.5612597178 Hartrees.
 NAtoms=   12 NActive=   12 NUniq=   12 SFac= 7.50D-01 NAtFMM=   80 NAOKFM=F Big=F
 NPDir=0 NMtPBC=     1 NCelOv=     1 NCel=       1 NClECP=     1 NCelD=      1
         NCelK=      1 NCelE2=     1 NClLst=     1 CellRange=     0.0.
 One-electron integrals computed using PRISM.
 Entering OneElI...
 Calculate overlap and kinetic energy integrals
    NBasis =  92  MinDer = 0  MaxDer = 0
 Requested accuracy = 0.1000D-12
 PrsmSu:  NPrtUS=   2 ThrOK=T IAlg=1
 PRISM was handed    67061929 working-precision words and   636 shell-pairs
 PRISM was handed    67061929 working-precision words and   636 shell-pairs
 IPart=  0 NShTot=         318 NBatch=          28 AvBLen=        11.4
 IPart=  1 NShTot=         318 NBatch=          28 AvBLen=        11.4
 *** Overlap *** 
                1             2             3             4             5 
      1  0.100000D+01
      2  0.658292D+00  0.100000D+01
      3  0.000000D+00  0.153544D-04  0.100000D+01
      4  0.000000D+00  0.483769D-03  0.219059D+00  0.100000D+01
      5  0.000000D+00  0.120594D-03  0.000000D+00  0.000000D+00  0.100000D+01
      6  0.000000D+00  0.000000D+00  0.000000D+00  0.000000D+00  0.000000D+00
      7  0.000000D+00  0.860253D-03  0.000000D+00  0.000000D+00  0.000000D+00
      8  0.198352D-03  0.699798D-02  0.184261D+00  0.812273D+00  0.000000D+00
      9  0.139579D-03  0.302571D-02  0.000000D+00  0.000000D+00  0.569754D+00
     10  0.000000D+00  0.000000D+00  0.000000D+00  0.000000D+00  0.000000D+00
     11  0.995689D-03  0.215839D-01  0.000000D+00  0.000000D+00  0.000000D+00
     12  0.258580D-01  0.933856D-01  0.697718D-01  0.402091D+00  0.000000D+00
     13  0.109581D-01  0.331040D-01  0.000000D+00  0.000000D+00  0.164679D+00
     14  0.000000D+00  0.000000D+00  0.000000D+00  0.000000D+00  0.000000D+00
     15  0.781693D-01  0.236147D+00  0.000000D+00  0.000000D+00  0.000000D+00
     16  0.000000D+00  0.205022D-03  0.791027D-01  0.710235D+00  0.000000D+00
     17  0.000000D+00  0.192915D-03  0.791027D-01  0.710235D+00  0.000000D+00
     18  0.000000D+00  0.809021D-03  0.791027D-01  0.710235D+00  0.000000D+00
     19  0.000000D+00  0.000000D+00  0.000000D+00  0.000000D+00  0.000000D+00
     20  0.000000D+00  0.149594D-03  0.000000D+00  0.000000D+00  0.000000D+00
     21  0.000000D+00  0.000000D+00  0.000000D+00  0.000000D+00  0.000000D+00
     22  0.000000D+00  0.200738D-03  0.320525D-01  0.270664D+00  0.190665D+00
     23  0.200738D-03  0.666741D-02  0.916644D-01  0.473962D+00  0.138279D+00
     24  0.000000D+00  0.240309D-05  0.481399D-05  0.194904D-01 -0.426713D-01
     25  0.000000D+00  0.110079D-03  0.194904D-01  0.203366D+00 -0.282219D+00
     26  0.000000D+00  0.909947D-04  0.426713D-01  0.282219D+00 -0.333594D+00
     27  0.000000D+00  0.000000D+00  0.000000D+00  0.000000D+00  0.000000D+00
     28  0.000000D+00  0.193128D-03  0.000000D+00  0.000000D+00  0.000000D+00
     29  0.399903D-04  0.261429D-02  0.643636D-01  0.359351D+00 -0.253511D+00
     30  0.944583D-04  0.379911D-02  0.129620D+00  0.562375D+00 -0.170740D+00
     31  0.000000D+00  0.000000D+00  0.000000D+00  0.000000D+00  0.000000D+00
     32  0.200479D-03  0.806325D-02  0.000000D+00  0.000000D+00  0.000000D+00
     33  0.158145D-01  0.618936D-01  0.527094D-01  0.309785D+00 -0.673317D-01
     34  0.225228D-01  0.737430D-01  0.555561D-01  0.303665D+00  0.598522D-01
     35  0.000000D+00  0.000000D+00  0.000000D+00  0.000000D+00  0.000000D+00
     36  0.478025D-01  0.156512D+00  0.000000D+00  0.000000D+00  0.000000D+00
     37  0.000000D+00  0.663800D-04  0.526767D-01  0.334402D+00 -0.413876D+00
     38  0.000000D+00  0.388419D-04  0.113280D-02  0.928256D-01 -0.142160D+00
     39  0.000000D+00  0.162890D-03  0.113280D-02  0.928256D-01 -0.142160D+00
     40  0.000000D+00  0.000000D+00  0.000000D+00  0.000000D+00  0.000000D+00
     41  0.000000D+00  0.101233D-03  0.000000D+00  0.000000D+00  0.000000D+00
     42  0.000000D+00  0.000000D+00  0.000000D+00  0.000000D+00  0.000000D+00
     43  0.104764D-04  0.720595D-02  0.000000D+00  0.000000D+00  0.000000D+00
     44  0.720595D-02  0.617177D-01  0.000000D+00  0.000000D+00  0.000000D+00
     45  0.000000D+00  0.200738D-03  0.320525D-01  0.270664D+00  0.190665D+00
     46  0.200738D-03  0.666741D-02  0.916644D-01  0.473962D+00  0.138279D+00
     47  0.320525D-01  0.916644D-01  0.000000D+00  0.000000D+00  0.000000D+00
     48  0.270664D+00  0.473962D+00  0.000000D+00  0.000000D+00  0.000000D+00
     49  0.190665D+00  0.138279D+00  0.000000D+00  0.000000D+00  0.000000D+00
     50  0.000000D+00  0.000000D+00  0.000000D+00  0.000000D+00  0.000000D+00
     51 -0.312763D+00 -0.226830D+00  0.000000D+00  0.000000D+00  0.000000D+00
     52  0.375116D+00  0.702351D+00  0.000000D+00  0.902429D-05  0.000000D+00
     53  0.267879D+00  0.303675D+00  0.000000D+00  0.000000D+00  0.510483D-05
     54  0.000000D+00  0.000000D+00  0.000000D+00  0.000000D+00  0.000000D+00
     55 -0.439422D+00 -0.498140D+00  0.000000D+00 -0.533810D-04  0.000000D+00
     56  0.258482D+00  0.640357D+00  0.145172D-02  0.109510D-01  0.000000D+00
     57  0.109596D+00  0.226998D+00  0.000000D+00  0.000000D+00  0.433551D-02
     58  0.000000D+00  0.000000D+00  0.000000D+00  0.000000D+00  0.000000D+00
     59 -0.179778D+00 -0.372362D+00 -0.568561D-02 -0.399288D-01  0.000000D+00
     60  0.207129D+00  0.371459D+00  0.000000D+00  0.000000D+00  0.000000D+00
     61  0.116021D+00  0.349523D+00  0.000000D+00  0.000000D+00  0.000000D+00
     62  0.361177D+00  0.408549D+00  0.000000D+00  0.000000D+00  0.000000D+00
     63  0.000000D+00  0.000000D+00  0.000000D+00  0.000000D+00  0.000000D+00
     64 -0.258857D+00 -0.623253D-01  0.000000D+00  0.000000D+00  0.000000D+00
     65  0.000000D+00  0.000000D+00  0.000000D+00  0.000000D+00  0.000000D+00
     66  0.000000D+00  0.115791D-04  0.430533D-04  0.789566D-02 -0.152645D-01
     67  0.115791D-04  0.112594D-02  0.142782D-01  0.109874D+00 -0.102096D+00
     68  0.000000D+00  0.115791D-04  0.430533D-04  0.789566D-02 -0.152645D-01
     69  0.115791D-04  0.112594D-02  0.142782D-01  0.109874D+00 -0.102096D+00
     70  0.430533D-04  0.142782D-01  0.000000D+00  0.000000D+00  0.000000D+00
     71  0.789566D-02  0.109874D+00  0.000000D+00  0.000000D+00  0.000000D+00
     72  0.152645D-01  0.102096D+00  0.000000D+00  0.000000D+00  0.000000D+00
     73  0.000000D+00  0.000000D+00  0.000000D+00  0.000000D+00  0.000000D+00
     74 -0.744992D-02 -0.498287D-01  0.000000D+00  0.000000D+00  0.000000D+00
     75  0.740737D-01  0.262382D+00  0.000000D+00  0.392978D-05 -0.231359D-05
     76  0.176934D+00  0.381297D+00  0.000000D+00  0.625712D-05 -0.148259D-05
     77  0.000000D+00  0.000000D+00  0.000000D+00  0.000000D+00  0.000000D+00
     78 -0.863532D-01 -0.186094D+00  0.000000D+00 -0.232521D-04  0.137417D-04
     79  0.158045D+00  0.424412D+00  0.109674D-02  0.843480D-02 -0.177308D-02
     80  0.225200D+00  0.505665D+00  0.115586D-02  0.827654D-02  0.157774D-02
     81  0.000000D+00  0.000000D+00  0.000000D+00  0.000000D+00  0.000000D+00
     82 -0.109910D+00 -0.246792D+00 -0.429530D-02 -0.307564D-01  0.651916D-02
     83  0.137730D-01  0.120267D+00  0.000000D+00  0.000000D+00  0.000000D+00
     84  0.161797D-02  0.703737D-01  0.000000D+00  0.000000D+00  0.000000D+00
     85  0.451326D-02  0.822582D-01  0.000000D+00  0.000000D+00  0.000000D+00
     86  0.000000D+00  0.000000D+00  0.000000D+00  0.000000D+00  0.000000D+00
     87 -0.102751D-01 -0.421768D-01  0.000000D+00  0.000000D+00  0.000000D+00
     88  0.000000D+00  0.000000D+00  0.000000D+00  0.000000D+00  0.000000D+00
     89  0.125798D-01  0.128011D+00  0.000000D+00  0.000000D+00  0.000000D+00
     90  0.128011D+00  0.365469D+00  0.000000D+00  0.000000D+00  0.000000D+00
     91  0.571644D-03  0.366357D-01  0.000000D+00  0.000000D+00  0.000000D+00
     92  0.366357D-01  0.168873D+00  0.240309D-05  0.110079D-03 -0.909947D-04
                6             7             8             9            10 
      6  0.100000D+01
      7  0.000000D+00  0.100000D+01
      8  0.000000D+00  0.000000D+00  0.100000D+01
      9  0.000000D+00  0.000000D+00  0.000000D+00  0.100000D+01
     10  0.569754D+00  0.000000D+00  0.000000D+00  0.000000D+00  0.100000D+01
     11  0.000000D+00  0.569754D+00  0.000000D+00  0.000000D+00  0.000000D+00
     12  0.000000D+00  0.000000D+00  0.727666D+00  0.000000D+00  0.000000D+00
     13  0.000000D+00  0.000000D+00  0.000000D+00  0.588690D+00  0.000000D+00
     14  0.164679D+00  0.000000D+00  0.000000D+00  0.000000D+00  0.588690D+00
     15  0.000000D+00  0.164679D+00  0.000000D+00  0.000000D+00  0.000000D+00
     16  0.000000D+00  0.000000D+00  0.629936D+00  0.000000D+00  0.000000D+00
     17  0.000000D+00  0.000000D+00  0.629936D+00  0.000000D+00  0.000000D+00
     18  0.000000D+00  0.000000D+00  0.629936D+00  0.000000D+00  0.000000D+00
     19  0.000000D+00  0.000000D+00  0.000000D+00  0.000000D+00  0.000000D+00
     20  0.000000D+00  0.000000D+00  0.000000D+00  0.000000D+00  0.000000D+00
     21  0.000000D+00  0.000000D+00  0.000000D+00  0.000000D+00  0.000000D+00
     22 -0.312763D+00  0.000000D+00  0.375116D+00  0.267879D+00 -0.439422D+00
     23 -0.226830D+00  0.000000D+00  0.702351D+00  0.303675D+00 -0.498140D+00
     24  0.000000D+00  0.000000D+00  0.643636D-01 -0.129620D+00  0.000000D+00
     25  0.000000D+00  0.000000D+00  0.359351D+00 -0.562375D+00  0.000000D+00
     26  0.000000D+00  0.000000D+00  0.253511D+00 -0.170740D+00  0.000000D+00
     27  0.115814D+00  0.000000D+00  0.000000D+00  0.000000D+00  0.242739D+00
     28  0.000000D+00  0.115814D+00  0.000000D+00  0.000000D+00  0.000000D+00
     29  0.000000D+00  0.000000D+00  0.579631D+00 -0.605354D+00  0.000000D+00
     30  0.000000D+00  0.000000D+00  0.605354D+00 -0.525884D-01  0.000000D+00
     31  0.242739D+00  0.000000D+00  0.000000D+00  0.000000D+00  0.579631D+00
     32  0.000000D+00  0.242739D+00  0.000000D+00  0.000000D+00  0.000000D+00
     33  0.000000D+00  0.000000D+00  0.581168D+00 -0.250193D+00  0.000000D+00
     34  0.000000D+00  0.000000D+00  0.491037D+00  0.258780D+00  0.000000D+00
     35  0.126532D+00  0.000000D+00  0.000000D+00  0.000000D+00  0.470171D+00
     36  0.000000D+00  0.126532D+00  0.000000D+00  0.000000D+00  0.000000D+00
     37  0.000000D+00  0.000000D+00  0.353148D+00 -0.422973D+00  0.000000D+00
     38  0.000000D+00  0.000000D+00  0.255918D+00 -0.441451D+00  0.000000D+00
     39  0.000000D+00  0.000000D+00  0.255918D+00 -0.441451D+00  0.000000D+00
     40  0.183392D+00  0.000000D+00  0.000000D+00  0.000000D+00  0.161252D+00
     41  0.000000D+00  0.183392D+00  0.000000D+00  0.000000D+00  0.000000D+00
     42  0.000000D+00  0.000000D+00  0.000000D+00  0.000000D+00  0.000000D+00
     43  0.000000D+00  0.000000D+00  0.000000D+00  0.000000D+00  0.000000D+00
     44  0.000000D+00  0.000000D+00  0.106287D-04 -0.154457D-04  0.000000D+00
     45  0.312763D+00  0.000000D+00  0.375116D+00  0.267879D+00  0.439422D+00
     46  0.226830D+00  0.000000D+00  0.702351D+00  0.303675D+00  0.498140D+00
     47  0.000000D+00  0.000000D+00  0.000000D+00  0.000000D+00  0.000000D+00
     48  0.000000D+00  0.000000D+00  0.902429D-05  0.000000D+00  0.000000D+00
     49  0.000000D+00  0.000000D+00  0.000000D+00  0.510483D-05  0.000000D+00
     50  0.000000D+00  0.000000D+00  0.000000D+00  0.000000D+00  0.510483D-05
     51  0.000000D+00  0.000000D+00 -0.198119D-04  0.000000D+00  0.000000D+00
     52  0.000000D+00  0.198119D-04  0.536132D-03  0.000000D+00  0.000000D+00
     53  0.000000D+00  0.000000D+00  0.000000D+00  0.536132D-03  0.000000D+00
     54  0.510483D-05  0.000000D+00  0.000000D+00  0.000000D+00  0.536132D-03
     55  0.000000D+00 -0.112620D-03 -0.208074D-02  0.000000D+00  0.000000D+00
     56  0.000000D+00  0.857327D-02  0.326373D-01  0.000000D+00  0.000000D+00
     57  0.000000D+00  0.000000D+00  0.000000D+00  0.264040D-01  0.000000D+00
     58  0.433551D-02  0.000000D+00  0.000000D+00  0.000000D+00  0.264040D-01
     59  0.000000D+00 -0.271881D-01 -0.102474D+00  0.000000D+00  0.000000D+00
     60  0.000000D+00  0.000000D+00  0.249530D-05  0.000000D+00  0.000000D+00
     61  0.000000D+00  0.000000D+00  0.249530D-05  0.000000D+00  0.000000D+00
     62  0.000000D+00  0.000000D+00  0.155871D-04  0.000000D+00  0.000000D+00
     63  0.000000D+00  0.000000D+00  0.000000D+00  0.000000D+00  0.000000D+00
     64  0.000000D+00  0.000000D+00  0.000000D+00 -0.584271D-05  0.000000D+00
     65  0.000000D+00  0.000000D+00  0.000000D+00  0.000000D+00 -0.584271D-05
     66  0.744992D-02  0.000000D+00  0.740737D-01 -0.176934D+00  0.863532D-01
     67  0.498287D-01  0.000000D+00  0.262382D+00 -0.381297D+00  0.186094D+00
     68 -0.744992D-02  0.000000D+00  0.740737D-01 -0.176934D+00 -0.863532D-01
     69 -0.498287D-01  0.000000D+00  0.262382D+00 -0.381297D+00 -0.186094D+00
     70  0.000000D+00  0.000000D+00  0.000000D+00  0.000000D+00  0.000000D+00
     71  0.000000D+00  0.000000D+00  0.392978D-05 -0.625712D-05  0.000000D+00
     72  0.000000D+00  0.000000D+00  0.231359D-05 -0.148259D-05  0.000000D+00
     73  0.000000D+00  0.000000D+00  0.000000D+00  0.000000D+00  0.221528D-05
     74  0.000000D+00  0.000000D+00 -0.859754D-05  0.137417D-04  0.000000D+00
     75  0.000000D+00  0.859754D-05  0.310759D-03 -0.324550D-03  0.000000D+00
     76  0.000000D+00  0.137417D-04  0.324550D-03 -0.281943D-04  0.000000D+00
     77  0.221528D-05  0.000000D+00  0.000000D+00  0.000000D+00  0.310759D-03
     78  0.000000D+00 -0.488501D-04 -0.120606D-02  0.125958D-02  0.000000D+00
     79  0.000000D+00  0.658894D-02  0.260666D-01 -0.112217D-01  0.000000D+00
     80  0.000000D+00  0.651916D-02  0.220240D-01  0.116068D-01  0.000000D+00
     81  0.333204D-02  0.000000D+00  0.000000D+00  0.000000D+00  0.210882D-01
     82  0.000000D+00 -0.208938D-01 -0.818434D-01  0.352336D-01  0.000000D+00
     83  0.000000D+00  0.000000D+00  0.139889D-05 -0.167548D-05  0.000000D+00
     84  0.000000D+00  0.000000D+00  0.101374D-05 -0.174867D-05  0.000000D+00
     85  0.000000D+00  0.000000D+00  0.633240D-05 -0.109232D-04  0.000000D+00
     86  0.000000D+00  0.000000D+00  0.000000D+00  0.000000D+00  0.000000D+00
     87  0.000000D+00  0.000000D+00 -0.247900D-05  0.190255D-05  0.000000D+00
     88  0.000000D+00  0.000000D+00  0.000000D+00  0.000000D+00 -0.237366D-05
     89  0.000000D+00  0.000000D+00  0.000000D+00  0.000000D+00  0.000000D+00
     90  0.000000D+00  0.000000D+00  0.284511D-04  0.123014D-04  0.000000D+00
     91  0.000000D+00  0.000000D+00  0.399903D-04 -0.944583D-04  0.000000D+00
     92  0.000000D+00  0.193128D-03  0.261429D-02 -0.379911D-02  0.000000D+00
               11            12            13            14            15 
     11  0.100000D+01
     12  0.000000D+00  0.100000D+01
     13  0.000000D+00  0.000000D+00  0.100000D+01
     14  0.000000D+00  0.000000D+00  0.000000D+00  0.100000D+01
     15  0.588690D+00  0.000000D+00  0.000000D+00  0.000000D+00  0.100000D+01
     16  0.000000D+00  0.323540D+00  0.000000D+00  0.000000D+00  0.000000D+00
     17  0.000000D+00  0.323540D+00  0.000000D+00  0.000000D+00  0.000000D+00
     18  0.000000D+00  0.323540D+00  0.000000D+00  0.000000D+00  0.000000D+00
     19  0.000000D+00  0.000000D+00  0.000000D+00  0.000000D+00  0.000000D+00
     20  0.000000D+00  0.000000D+00  0.000000D+00  0.000000D+00  0.000000D+00
     21  0.000000D+00  0.000000D+00  0.000000D+00  0.000000D+00  0.000000D+00
     22  0.000000D+00  0.258482D+00  0.109596D+00 -0.179778D+00  0.000000D+00
     23  0.000000D+00  0.640357D+00  0.226998D+00 -0.372362D+00  0.000000D+00
     24  0.000000D+00  0.527094D-01 -0.555561D-01  0.000000D+00  0.000000D+00
     25  0.000000D+00  0.309785D+00 -0.303665D+00  0.000000D+00  0.000000D+00
     26  0.000000D+00  0.673317D-01  0.598522D-01  0.000000D+00  0.000000D+00
     27  0.000000D+00  0.000000D+00  0.000000D+00  0.126532D+00  0.000000D+00
     28  0.242739D+00  0.000000D+00  0.000000D+00  0.000000D+00  0.126532D+00
     29  0.000000D+00  0.581168D+00 -0.491037D+00  0.000000D+00  0.000000D+00
     30  0.000000D+00  0.250193D+00  0.258780D+00  0.000000D+00  0.000000D+00
     31  0.000000D+00  0.000000D+00  0.000000D+00  0.470171D+00  0.000000D+00
     32  0.579631D+00  0.000000D+00  0.000000D+00  0.000000D+00  0.470171D+00
     33  0.000000D+00  0.867984D+00 -0.461882D+00  0.000000D+00  0.000000D+00
     34  0.000000D+00  0.461882D+00  0.622202D+00  0.000000D+00  0.000000D+00
     35  0.000000D+00  0.000000D+00  0.000000D+00  0.867984D+00  0.000000D+00
     36  0.470171D+00  0.000000D+00  0.000000D+00  0.000000D+00  0.867984D+00
     37  0.000000D+00  0.254635D+00 -0.229601D+00  0.000000D+00  0.000000D+00
     38  0.000000D+00  0.247363D+00 -0.249594D+00  0.000000D+00  0.000000D+00
     39  0.000000D+00  0.247363D+00 -0.249594D+00  0.000000D+00  0.000000D+00
     40  0.000000D+00  0.000000D+00  0.000000D+00  0.236690D-01  0.000000D+00
     41  0.161252D+00  0.000000D+00  0.000000D+00  0.000000D+00  0.236690D-01
     42  0.000000D+00  0.000000D+00  0.000000D+00  0.000000D+00  0.000000D+00
     43  0.000000D+00  0.101279D-02 -0.144162D-02  0.000000D+00  0.446687D-02
     44  0.478588D-04  0.620698D-02 -0.739529D-02  0.000000D+00  0.229144D-01
     45  0.000000D+00  0.258482D+00  0.109596D+00  0.179778D+00  0.000000D+00
     46  0.000000D+00  0.640357D+00  0.226998D+00  0.372362D+00  0.000000D+00
     47  0.000000D+00  0.145172D-02  0.000000D+00  0.000000D+00  0.568561D-02
     48  0.533810D-04  0.109510D-01  0.000000D+00  0.000000D+00  0.399288D-01
     49  0.000000D+00  0.000000D+00  0.433551D-02  0.000000D+00  0.000000D+00
     50  0.000000D+00  0.000000D+00  0.000000D+00  0.433551D-02  0.000000D+00
     51 -0.112620D-03 -0.857327D-02  0.000000D+00  0.000000D+00 -0.271881D-01
     52  0.208074D-02  0.326373D-01  0.000000D+00  0.000000D+00  0.102474D+00
     53  0.000000D+00  0.000000D+00  0.264040D-01  0.000000D+00  0.000000D+00
     54  0.000000D+00  0.000000D+00  0.000000D+00  0.264040D-01  0.000000D+00
     55 -0.753923D-02 -0.522126D-01  0.000000D+00  0.000000D+00 -0.137532D+00
     56  0.522126D-01  0.141542D+00  0.000000D+00  0.000000D+00  0.279893D+00
     57  0.000000D+00  0.000000D+00  0.141542D+00  0.000000D+00  0.000000D+00
     58  0.000000D+00  0.000000D+00  0.000000D+00  0.141542D+00  0.000000D+00
     59 -0.137532D+00 -0.279893D+00  0.000000D+00  0.000000D+00 -0.411932D+00
     60  0.159953D-04  0.794057D-02  0.000000D+00  0.000000D+00  0.297741D-01
     61  0.159953D-04  0.794057D-02  0.000000D+00  0.000000D+00  0.297741D-01
     62  0.931692D-04  0.111641D-01  0.000000D+00  0.000000D+00  0.386007D-01
     63  0.000000D+00  0.000000D+00  0.000000D+00  0.000000D+00  0.000000D+00
     64  0.000000D+00  0.000000D+00 -0.282347D-02  0.000000D+00  0.000000D+00
     65  0.000000D+00  0.000000D+00  0.000000D+00 -0.282347D-02  0.000000D+00
     66  0.000000D+00  0.158045D+00 -0.225200D+00  0.109910D+00  0.000000D+00
     67  0.000000D+00  0.424412D+00 -0.505665D+00  0.246792D+00  0.000000D+00
     68  0.000000D+00  0.158045D+00 -0.225200D+00 -0.109910D+00  0.000000D+00
     69  0.000000D+00  0.424412D+00 -0.505665D+00 -0.246792D+00  0.000000D+00
     70  0.000000D+00  0.109674D-02 -0.115586D-02  0.000000D+00  0.429530D-02
     71  0.232521D-04  0.843480D-02 -0.827654D-02  0.000000D+00  0.307564D-01
     72  0.137417D-04  0.177308D-02  0.157774D-02  0.000000D+00  0.651916D-02
     73  0.000000D+00  0.000000D+00  0.000000D+00  0.333204D-02  0.000000D+00
     74 -0.488501D-04 -0.658894D-02  0.651916D-02  0.000000D+00 -0.208938D-01
     75  0.120606D-02  0.260666D-01 -0.220240D-01  0.000000D+00  0.818434D-01
     76  0.125958D-02  0.112217D-01  0.116068D-01  0.000000D+00  0.352336D-01
     77  0.000000D+00  0.000000D+00  0.000000D+00  0.210882D-01  0.000000D+00
     78 -0.436997D-02 -0.417008D-01  0.352336D-01  0.000000D+00 -0.109843D+00
     79  0.417008D-01  0.122856D+00 -0.653757D-01  0.000000D+00  0.242942D+00
     80  0.352336D-01  0.653757D-01  0.880678D-01  0.000000D+00  0.129277D+00
     81  0.000000D+00  0.000000D+00  0.000000D+00  0.122856D+00  0.000000D+00
     82 -0.109843D+00 -0.242942D+00  0.129277D+00  0.000000D+00 -0.357551D+00
     83  0.896710D-05  0.624945D-02 -0.563504D-02  0.000000D+00  0.234330D-01
     84  0.649823D-05  0.607098D-02 -0.612573D-02  0.000000D+00  0.227638D-01
     85  0.378509D-04  0.853551D-02 -0.861250D-02  0.000000D+00  0.295122D-01
     86  0.000000D+00  0.000000D+00  0.000000D+00  0.580902D-03  0.000000D+00
     87 -0.152520D-04 -0.114871D-02 -0.999621D-03  0.000000D+00 -0.372630D-02
     88  0.000000D+00  0.000000D+00  0.000000D+00 -0.215869D-02  0.000000D+00
     89  0.000000D+00  0.165555D-02  0.701195D-03  0.000000D+00  0.730242D-02
     90  0.128109D-03  0.936514D-02  0.331982D-02  0.000000D+00  0.345734D-01
     91  0.200479D-03  0.158145D-01 -0.225228D-01  0.000000D+00  0.478025D-01
     92  0.806325D-02  0.618936D-01 -0.737430D-01  0.000000D+00  0.156512D+00
               16            17            18            19            20 
     16  0.100000D+01
     17  0.333333D+00  0.100000D+01
     18  0.333333D+00  0.333333D+00  0.100000D+01
     19  0.000000D+00  0.000000D+00  0.000000D+00  0.100000D+01
     20  0.000000D+00  0.000000D+00  0.000000D+00  0.000000D+00  0.100000D+01
     21  0.000000D+00  0.000000D+00  0.000000D+00  0.000000D+00  0.000000D+00
     22  0.207129D+00  0.361177D+00  0.116021D+00 -0.258857D+00  0.000000D+00
     23  0.371459D+00  0.408549D+00  0.349523D+00 -0.623253D-01  0.000000D+00
     24  0.526767D-01  0.113280D-02  0.113280D-02  0.000000D+00  0.000000D+00
     25  0.334402D+00  0.928256D-01  0.928256D-01  0.000000D+00  0.000000D+00
     26  0.413876D+00  0.142160D+00  0.142160D+00  0.000000D+00  0.000000D+00
     27  0.000000D+00  0.000000D+00  0.000000D+00 -0.183392D+00  0.000000D+00
     28  0.000000D+00  0.000000D+00  0.000000D+00  0.000000D+00 -0.183392D+00
     29  0.353148D+00  0.255918D+00  0.255918D+00  0.000000D+00  0.000000D+00
     30  0.422973D+00  0.441451D+00  0.441451D+00  0.000000D+00  0.000000D+00
     31  0.000000D+00  0.000000D+00  0.000000D+00 -0.161252D+00  0.000000D+00
     32  0.000000D+00  0.000000D+00  0.000000D+00  0.000000D+00 -0.161252D+00
     33  0.254635D+00  0.247363D+00  0.247363D+00  0.000000D+00  0.000000D+00
     34  0.229601D+00  0.249594D+00  0.249594D+00  0.000000D+00  0.000000D+00
     35  0.000000D+00  0.000000D+00  0.000000D+00 -0.236690D-01  0.000000D+00
     36  0.000000D+00  0.000000D+00  0.000000D+00  0.000000D+00 -0.236690D-01
     37  0.487216D+00  0.154963D+00  0.154963D+00  0.000000D+00  0.000000D+00
     38  0.154963D+00  0.753228D-01  0.251076D-01  0.000000D+00  0.000000D+00
     39  0.154963D+00  0.251076D-01  0.753228D-01  0.000000D+00  0.000000D+00
     40  0.000000D+00  0.000000D+00  0.000000D+00 -0.314243D+00  0.000000D+00
     41  0.000000D+00  0.000000D+00  0.000000D+00  0.000000D+00 -0.314243D+00
     42  0.000000D+00  0.000000D+00  0.000000D+00  0.000000D+00  0.000000D+00
     43  0.000000D+00  0.000000D+00  0.000000D+00  0.000000D+00  0.000000D+00
     44  0.000000D+00  0.000000D+00  0.000000D+00  0.000000D+00  0.000000D+00
     45  0.207129D+00  0.361177D+00  0.116021D+00  0.258857D+00  0.000000D+00
     46  0.371459D+00  0.408549D+00  0.349523D+00  0.623253D-01  0.000000D+00
     47  0.000000D+00  0.000000D+00  0.000000D+00  0.000000D+00  0.000000D+00
     48  0.000000D+00  0.000000D+00  0.000000D+00  0.000000D+00  0.000000D+00
     49  0.000000D+00  0.000000D+00  0.000000D+00  0.000000D+00  0.000000D+00
     50  0.000000D+00  0.000000D+00  0.000000D+00  0.000000D+00  0.000000D+00
     51  0.000000D+00  0.000000D+00  0.000000D+00  0.000000D+00  0.000000D+00
     52  0.249530D-05  0.249530D-05  0.155871D-04  0.000000D+00  0.000000D+00
     53  0.000000D+00  0.000000D+00  0.000000D+00  0.000000D+00  0.584271D-05
     54  0.000000D+00  0.000000D+00  0.000000D+00  0.000000D+00  0.000000D+00
     55 -0.159953D-04 -0.159953D-04 -0.931692D-04  0.000000D+00  0.000000D+00
     56  0.794057D-02  0.794057D-02  0.111641D-01  0.000000D+00  0.000000D+00
     57  0.000000D+00  0.000000D+00  0.000000D+00  0.000000D+00  0.282347D-02
     58  0.000000D+00  0.000000D+00  0.000000D+00  0.000000D+00  0.000000D+00
     59 -0.297741D-01 -0.297741D-01 -0.386007D-01  0.000000D+00  0.000000D+00
     60  0.000000D+00  0.000000D+00  0.000000D+00  0.000000D+00  0.000000D+00
     61  0.000000D+00  0.000000D+00  0.000000D+00  0.000000D+00  0.000000D+00
     62  0.000000D+00  0.000000D+00  0.000000D+00  0.000000D+00  0.000000D+00
     63  0.000000D+00  0.000000D+00  0.000000D+00  0.000000D+00  0.000000D+00
     64  0.000000D+00  0.000000D+00  0.000000D+00  0.000000D+00  0.000000D+00
     65  0.000000D+00  0.000000D+00  0.000000D+00  0.000000D+00  0.000000D+00
     66  0.137730D-01  0.451326D-02  0.161797D-02 -0.102751D-01  0.000000D+00
     67  0.120267D+00  0.822582D-01  0.703737D-01 -0.421768D-01  0.000000D+00
     68  0.137730D-01  0.451326D-02  0.161797D-02  0.102751D-01  0.000000D+00
     69  0.120267D+00  0.822582D-01  0.703737D-01  0.421768D-01  0.000000D+00
     70  0.000000D+00  0.000000D+00  0.000000D+00  0.000000D+00  0.000000D+00
     71  0.000000D+00  0.000000D+00  0.000000D+00  0.000000D+00  0.000000D+00
     72  0.000000D+00  0.000000D+00  0.000000D+00  0.000000D+00  0.000000D+00
     73  0.000000D+00  0.000000D+00  0.000000D+00  0.000000D+00  0.000000D+00
     74  0.000000D+00  0.000000D+00  0.000000D+00  0.000000D+00  0.000000D+00
     75  0.139889D-05  0.101374D-05  0.633240D-05  0.000000D+00 -0.247900D-05
     76  0.167548D-05  0.174867D-05  0.109232D-04  0.000000D+00 -0.190255D-05
     77  0.000000D+00  0.000000D+00  0.000000D+00  0.000000D+00  0.000000D+00
     78 -0.896710D-05 -0.649823D-05 -0.378509D-04  0.000000D+00  0.152520D-04
     79  0.624945D-02  0.607098D-02  0.853551D-02  0.000000D+00 -0.114871D-02
     80  0.563504D-02  0.612573D-02  0.861250D-02  0.000000D+00  0.999621D-03
     81  0.000000D+00  0.000000D+00  0.000000D+00 -0.580902D-03  0.000000D+00
     82 -0.234330D-01 -0.227638D-01 -0.295122D-01  0.000000D+00  0.372630D-02
     83  0.000000D+00  0.000000D+00  0.000000D+00  0.000000D+00  0.000000D+00
     84  0.000000D+00  0.000000D+00  0.000000D+00  0.000000D+00  0.000000D+00
     85  0.000000D+00  0.000000D+00  0.000000D+00  0.000000D+00  0.000000D+00
     86  0.000000D+00  0.000000D+00  0.000000D+00  0.000000D+00  0.000000D+00
     87  0.000000D+00  0.000000D+00  0.000000D+00  0.000000D+00  0.000000D+00
     88  0.000000D+00  0.000000D+00  0.000000D+00  0.000000D+00  0.000000D+00
     89  0.000000D+00  0.000000D+00  0.000000D+00  0.000000D+00  0.000000D+00
     90  0.000000D+00  0.000000D+00  0.000000D+00  0.000000D+00  0.000000D+00
     91  0.000000D+00  0.000000D+00  0.000000D+00  0.000000D+00  0.000000D+00
     92  0.663800D-04  0.388419D-04  0.162890D-03  0.000000D+00 -0.101233D-03
               21            22            23            24            25 
     21  0.100000D+01
     22  0.000000D+00  0.100000D+01
     23  0.000000D+00  0.658292D+00  0.100000D+01
     24  0.000000D+00  0.430533D-04  0.142782D-01  0.100000D+01
     25  0.000000D+00  0.789566D-02  0.109874D+00  0.219059D+00  0.100000D+01
     26  0.000000D+00  0.152645D-01  0.102096D+00  0.000000D+00  0.000000D+00
     27  0.000000D+00 -0.744992D-02 -0.498287D-01  0.000000D+00  0.000000D+00
     28  0.000000D+00  0.000000D+00  0.000000D+00  0.000000D+00  0.000000D+00
     29  0.000000D+00  0.740737D-01  0.262382D+00  0.184261D+00  0.812273D+00
     30  0.000000D+00  0.176934D+00  0.381297D+00  0.000000D+00  0.000000D+00
     31  0.000000D+00 -0.863532D-01 -0.186094D+00  0.000000D+00  0.000000D+00
     32  0.000000D+00  0.000000D+00  0.000000D+00  0.000000D+00  0.000000D+00
     33  0.000000D+00  0.158045D+00  0.424412D+00  0.697718D-01  0.402091D+00
     34  0.000000D+00  0.225200D+00  0.505665D+00  0.000000D+00  0.000000D+00
     35  0.000000D+00 -0.109910D+00 -0.246792D+00  0.000000D+00  0.000000D+00
     36  0.000000D+00  0.000000D+00  0.000000D+00  0.000000D+00  0.000000D+00
     37  0.000000D+00  0.137730D-01  0.120267D+00  0.791027D-01  0.710235D+00
     38  0.000000D+00  0.451326D-02  0.822582D-01  0.791027D-01  0.710235D+00
     39  0.000000D+00  0.161797D-02  0.703737D-01  0.791027D-01  0.710235D+00
     40  0.000000D+00 -0.102751D-01 -0.421768D-01  0.000000D+00  0.000000D+00
     41  0.000000D+00  0.000000D+00  0.000000D+00  0.000000D+00  0.000000D+00
     42  0.753228D-01  0.000000D+00  0.000000D+00  0.000000D+00  0.000000D+00
     43  0.000000D+00  0.000000D+00  0.000000D+00  0.000000D+00  0.000000D+00
     44  0.000000D+00  0.000000D+00  0.516816D-05  0.000000D+00  0.000000D+00
     45  0.000000D+00  0.125798D-01  0.128011D+00  0.430533D-04  0.789566D-02
     46  0.000000D+00  0.128011D+00  0.365469D+00  0.142782D-01  0.109874D+00
     47  0.000000D+00  0.000000D+00  0.000000D+00  0.000000D+00  0.000000D+00
     48  0.000000D+00  0.000000D+00  0.768895D-05  0.000000D+00  0.000000D+00
     49  0.000000D+00  0.000000D+00  0.186077D-05  0.000000D+00  0.000000D+00
     50  0.000000D+00  0.000000D+00 -0.305236D-05  0.000000D+00  0.000000D+00
     51  0.000000D+00  0.000000D+00 -0.163262D-04  0.000000D+00  0.000000D+00
     52  0.000000D+00  0.226477D-05  0.446206D-03  0.000000D+00  0.392978D-05
     53  0.000000D+00  0.158910D-05  0.192926D-03  0.000000D+00 -0.625712D-05
     54  0.584271D-05 -0.260672D-05 -0.316470D-03  0.000000D+00  0.000000D+00
     55  0.000000D+00 -0.139426D-04 -0.169271D-02  0.000000D+00 -0.232521D-04
     56  0.000000D+00  0.654163D-02  0.295731D-01  0.109674D-02  0.843480D-02
     57  0.000000D+00  0.277141D-02  0.104833D-01 -0.115586D-02 -0.827654D-02
     58  0.282347D-02 -0.454614D-02 -0.171965D-01  0.000000D+00  0.000000D+00
     59  0.000000D+00 -0.243160D-01 -0.919790D-01 -0.429530D-02 -0.307564D-01
     60  0.000000D+00  0.000000D+00  0.232224D-05  0.000000D+00  0.000000D+00
     61  0.000000D+00  0.000000D+00  0.255412D-05  0.000000D+00  0.000000D+00
     62  0.000000D+00  0.000000D+00  0.127421D-04  0.000000D+00  0.000000D+00
     63  0.000000D+00  0.000000D+00  0.000000D+00  0.000000D+00  0.000000D+00
     64  0.000000D+00  0.000000D+00 -0.208405D-05  0.000000D+00  0.000000D+00
     65  0.000000D+00  0.000000D+00  0.341863D-05  0.000000D+00  0.000000D+00
     66  0.000000D+00  0.104764D-04  0.720595D-02  0.320525D-01  0.270664D+00
     67  0.000000D+00  0.720595D-02  0.617177D-01  0.916644D-01  0.473962D+00
     68  0.000000D+00  0.571644D-03  0.366357D-01  0.320525D-01  0.270664D+00
     69  0.000000D+00  0.366357D-01  0.168873D+00  0.916644D-01  0.473962D+00
     70  0.000000D+00  0.000000D+00  0.000000D+00  0.000000D+00  0.000000D+00
     71  0.000000D+00  0.000000D+00  0.174431D-05  0.000000D+00  0.000000D+00
     72  0.000000D+00  0.000000D+00  0.141044D-05  0.000000D+00  0.000000D+00
     73  0.000000D+00  0.000000D+00  0.000000D+00  0.000000D+00  0.000000D+00
     74  0.000000D+00  0.000000D+00 -0.368190D-05  0.000000D+00  0.000000D+00
     75  0.000000D+00  0.000000D+00  0.166693D-03  0.000000D+00  0.902429D-05
     76  0.000000D+00  0.108052D-05  0.242240D-03  0.000000D+00  0.000000D+00
     77  0.237366D-05  0.000000D+00 -0.118226D-03  0.000000D+00  0.000000D+00
     78  0.000000D+00 -0.282065D-05 -0.632356D-03  0.000000D+00 -0.533810D-04
     79  0.000000D+00  0.400134D-02  0.196003D-01  0.145172D-02  0.109510D-01
     80  0.000000D+00  0.569708D-02  0.233527D-01  0.000000D+00  0.000000D+00
     81  0.215869D-02 -0.278048D-02 -0.113974D-01  0.000000D+00  0.000000D+00
     82  0.000000D+00 -0.148720D-01 -0.609614D-01 -0.568561D-02 -0.399288D-01
     83  0.000000D+00  0.000000D+00  0.000000D+00  0.000000D+00  0.000000D+00
     84  0.000000D+00  0.000000D+00  0.000000D+00  0.000000D+00  0.000000D+00
     85  0.000000D+00  0.000000D+00  0.256552D-05  0.000000D+00  0.000000D+00
     86  0.000000D+00  0.000000D+00  0.000000D+00  0.000000D+00  0.000000D+00
     87  0.000000D+00  0.000000D+00 -0.141032D-05  0.000000D+00  0.000000D+00
     88  0.000000D+00  0.000000D+00  0.000000D+00  0.000000D+00  0.000000D+00
     89  0.000000D+00  0.000000D+00  0.000000D+00  0.000000D+00  0.000000D+00
     90  0.000000D+00  0.000000D+00  0.306039D-04  0.000000D+00  0.000000D+00
     91  0.000000D+00  0.000000D+00  0.115791D-04  0.000000D+00  0.000000D+00
     92  0.000000D+00  0.115791D-04  0.112594D-02  0.153544D-04  0.483769D-03
               26            27            28            29            30 
     26  0.100000D+01
     27  0.000000D+00  0.100000D+01
     28  0.000000D+00  0.000000D+00  0.100000D+01
     29  0.000000D+00  0.000000D+00  0.000000D+00  0.100000D+01
     30  0.569754D+00  0.000000D+00  0.000000D+00  0.000000D+00  0.100000D+01
     31  0.000000D+00  0.569754D+00  0.000000D+00  0.000000D+00  0.000000D+00
     32  0.000000D+00  0.000000D+00  0.569754D+00  0.000000D+00  0.000000D+00
     33  0.000000D+00  0.000000D+00  0.000000D+00  0.727666D+00  0.000000D+00
     34  0.164679D+00  0.000000D+00  0.000000D+00  0.000000D+00  0.588690D+00
     35  0.000000D+00  0.164679D+00  0.000000D+00  0.000000D+00  0.000000D+00
     36  0.000000D+00  0.000000D+00  0.164679D+00  0.000000D+00  0.000000D+00
     37  0.000000D+00  0.000000D+00  0.000000D+00  0.629936D+00  0.000000D+00
     38  0.000000D+00  0.000000D+00  0.000000D+00  0.629936D+00  0.000000D+00
     39  0.000000D+00  0.000000D+00  0.000000D+00  0.629936D+00  0.000000D+00
     40  0.000000D+00  0.000000D+00  0.000000D+00  0.000000D+00  0.000000D+00
     41  0.000000D+00  0.000000D+00  0.000000D+00  0.000000D+00  0.000000D+00
     42  0.000000D+00  0.000000D+00  0.000000D+00  0.000000D+00  0.000000D+00
     43  0.000000D+00  0.000000D+00  0.000000D+00  0.000000D+00  0.000000D+00
     44  0.000000D+00  0.000000D+00  0.000000D+00  0.284511D-04 -0.123014D-04
     45  0.152645D-01  0.744992D-02  0.000000D+00  0.740737D-01  0.176934D+00
     46  0.102096D+00  0.498287D-01  0.000000D+00  0.262382D+00  0.381297D+00
     47  0.000000D+00  0.000000D+00  0.000000D+00  0.000000D+00  0.000000D+00
     48  0.000000D+00  0.000000D+00  0.000000D+00  0.392978D-05  0.625712D-05
     49  0.000000D+00  0.000000D+00  0.000000D+00 -0.231359D-05 -0.148259D-05
     50  0.000000D+00  0.000000D+00  0.000000D+00  0.000000D+00  0.000000D+00
     51  0.000000D+00  0.000000D+00  0.000000D+00 -0.859754D-05 -0.137417D-04
     52  0.231359D-05  0.000000D+00  0.859754D-05  0.310759D-03  0.324550D-03
     53 -0.148259D-05  0.000000D+00 -0.137417D-04 -0.324550D-03 -0.281943D-04
     54  0.000000D+00  0.221528D-05  0.000000D+00  0.000000D+00  0.000000D+00
     55 -0.137417D-04  0.000000D+00 -0.488501D-04 -0.120606D-02 -0.125958D-02
     56  0.177308D-02  0.000000D+00  0.658894D-02  0.260666D-01  0.112217D-01
     57  0.157774D-02  0.000000D+00 -0.651916D-02 -0.220240D-01  0.116068D-01
     58  0.000000D+00  0.333204D-02  0.000000D+00  0.000000D+00  0.000000D+00
     59 -0.651916D-02  0.000000D+00 -0.208938D-01 -0.818434D-01 -0.352336D-01
     60  0.000000D+00  0.000000D+00  0.000000D+00  0.139889D-05  0.167548D-05
     61  0.000000D+00  0.000000D+00  0.000000D+00  0.101374D-05  0.174867D-05
     62  0.000000D+00  0.000000D+00  0.000000D+00  0.633240D-05  0.109232D-04
     63  0.000000D+00  0.000000D+00  0.000000D+00  0.000000D+00  0.000000D+00
     64  0.000000D+00  0.000000D+00  0.000000D+00  0.247900D-05  0.190255D-05
     65  0.000000D+00  0.000000D+00  0.000000D+00  0.000000D+00  0.000000D+00
     66 -0.190665D+00  0.312763D+00  0.000000D+00  0.375116D+00 -0.267879D+00
     67 -0.138279D+00  0.226830D+00  0.000000D+00  0.702351D+00 -0.303675D+00
     68 -0.190665D+00 -0.312763D+00  0.000000D+00  0.375116D+00 -0.267879D+00
     69 -0.138279D+00 -0.226830D+00  0.000000D+00  0.702351D+00 -0.303675D+00
     70  0.000000D+00  0.000000D+00  0.000000D+00  0.000000D+00  0.000000D+00
     71  0.000000D+00  0.000000D+00  0.000000D+00  0.902429D-05  0.000000D+00
     72  0.000000D+00  0.000000D+00  0.000000D+00  0.000000D+00  0.510483D-05
     73  0.000000D+00  0.000000D+00  0.000000D+00  0.000000D+00  0.000000D+00
     74  0.000000D+00  0.000000D+00  0.000000D+00 -0.198119D-04  0.000000D+00
     75  0.000000D+00  0.000000D+00  0.198119D-04  0.536132D-03  0.000000D+00
     76  0.510483D-05  0.000000D+00  0.000000D+00  0.000000D+00  0.536132D-03
     77  0.000000D+00  0.510483D-05  0.000000D+00  0.000000D+00  0.000000D+00
     78  0.000000D+00  0.000000D+00 -0.112620D-03 -0.208074D-02  0.000000D+00
     79  0.000000D+00  0.000000D+00  0.857327D-02  0.326373D-01  0.000000D+00
     80  0.433551D-02  0.000000D+00  0.000000D+00  0.000000D+00  0.264040D-01
     81  0.000000D+00  0.433551D-02  0.000000D+00  0.000000D+00  0.000000D+00
     82  0.000000D+00  0.000000D+00 -0.271881D-01 -0.102474D+00  0.000000D+00
     83  0.000000D+00  0.000000D+00  0.000000D+00  0.249530D-05  0.000000D+00
     84  0.000000D+00  0.000000D+00  0.000000D+00  0.249530D-05  0.000000D+00
     85  0.000000D+00  0.000000D+00  0.000000D+00  0.155871D-04  0.000000D+00
     86  0.000000D+00  0.000000D+00  0.000000D+00  0.000000D+00  0.000000D+00
     87  0.000000D+00  0.000000D+00  0.000000D+00  0.000000D+00 -0.584271D-05
     88  0.000000D+00  0.000000D+00  0.000000D+00  0.000000D+00  0.000000D+00
     89  0.000000D+00  0.000000D+00  0.000000D+00  0.000000D+00  0.000000D+00
     90  0.000000D+00  0.000000D+00  0.000000D+00  0.106287D-04  0.154457D-04
     91  0.000000D+00  0.000000D+00  0.000000D+00  0.198352D-03 -0.139579D-03
     92 -0.120594D-03  0.000000D+00  0.860253D-03  0.699798D-02 -0.302571D-02
               31            32            33            34            35 
     31  0.100000D+01
     32  0.000000D+00  0.100000D+01
     33  0.000000D+00  0.000000D+00  0.100000D+01
     34  0.000000D+00  0.000000D+00  0.000000D+00  0.100000D+01
     35  0.588690D+00  0.000000D+00  0.000000D+00  0.000000D+00  0.100000D+01
     36  0.000000D+00  0.588690D+00  0.000000D+00  0.000000D+00  0.000000D+00
     37  0.000000D+00  0.000000D+00  0.323540D+00  0.000000D+00  0.000000D+00
     38  0.000000D+00  0.000000D+00  0.323540D+00  0.000000D+00  0.000000D+00
     39  0.000000D+00  0.000000D+00  0.323540D+00  0.000000D+00  0.000000D+00
     40  0.000000D+00  0.000000D+00  0.000000D+00  0.000000D+00  0.000000D+00
     41  0.000000D+00  0.000000D+00  0.000000D+00  0.000000D+00  0.000000D+00
     42  0.000000D+00  0.000000D+00  0.000000D+00  0.000000D+00  0.000000D+00
     43  0.000000D+00  0.000000D+00  0.165555D-02 -0.701195D-03  0.000000D+00
     44  0.000000D+00  0.128109D-03  0.936514D-02 -0.331982D-02  0.000000D+00
     45  0.863532D-01  0.000000D+00  0.158045D+00  0.225200D+00  0.109910D+00
     46  0.186094D+00  0.000000D+00  0.424412D+00  0.505665D+00  0.246792D+00
     47  0.000000D+00  0.000000D+00  0.109674D-02  0.115586D-02  0.000000D+00
     48  0.000000D+00  0.232521D-04  0.843480D-02  0.827654D-02  0.000000D+00
     49  0.000000D+00 -0.137417D-04 -0.177308D-02  0.157774D-02  0.000000D+00
     50  0.221528D-05  0.000000D+00  0.000000D+00  0.000000D+00  0.333204D-02
     51  0.000000D+00 -0.488501D-04 -0.658894D-02 -0.651916D-02  0.000000D+00
     52  0.000000D+00  0.120606D-02  0.260666D-01  0.220240D-01  0.000000D+00
     53  0.000000D+00 -0.125958D-02 -0.112217D-01  0.116068D-01  0.000000D+00
     54  0.310759D-03  0.000000D+00  0.000000D+00  0.000000D+00  0.210882D-01
     55  0.000000D+00 -0.436997D-02 -0.417008D-01 -0.352336D-01  0.000000D+00
     56  0.000000D+00  0.417008D-01  0.122856D+00  0.653757D-01  0.000000D+00
     57  0.000000D+00 -0.352336D-01 -0.653757D-01  0.880678D-01  0.000000D+00
     58  0.210882D-01  0.000000D+00  0.000000D+00  0.000000D+00  0.122856D+00
     59  0.000000D+00 -0.109843D+00 -0.242942D+00 -0.129277D+00  0.000000D+00
     60  0.000000D+00  0.896710D-05  0.624945D-02  0.563504D-02  0.000000D+00
     61  0.000000D+00  0.649823D-05  0.607098D-02  0.612573D-02  0.000000D+00
     62  0.000000D+00  0.378509D-04  0.853551D-02  0.861250D-02  0.000000D+00
     63  0.000000D+00  0.000000D+00  0.000000D+00  0.000000D+00 -0.580902D-03
     64  0.000000D+00  0.152520D-04  0.114871D-02 -0.999621D-03  0.000000D+00
     65 -0.237366D-05  0.000000D+00  0.000000D+00  0.000000D+00 -0.215869D-02
     66  0.439422D+00  0.000000D+00  0.258482D+00 -0.109596D+00  0.179778D+00
     67  0.498140D+00  0.000000D+00  0.640357D+00 -0.226998D+00  0.372362D+00
     68 -0.439422D+00  0.000000D+00  0.258482D+00 -0.109596D+00 -0.179778D+00
     69 -0.498140D+00  0.000000D+00  0.640357D+00 -0.226998D+00 -0.372362D+00
     70  0.000000D+00  0.000000D+00  0.145172D-02  0.000000D+00  0.000000D+00
     71  0.000000D+00  0.533810D-04  0.109510D-01  0.000000D+00  0.000000D+00
     72  0.000000D+00  0.000000D+00  0.000000D+00  0.433551D-02  0.000000D+00
     73  0.510483D-05  0.000000D+00  0.000000D+00  0.000000D+00  0.433551D-02
     74  0.000000D+00 -0.112620D-03 -0.857327D-02  0.000000D+00  0.000000D+00
     75  0.000000D+00  0.208074D-02  0.326373D-01  0.000000D+00  0.000000D+00
     76  0.000000D+00  0.000000D+00  0.000000D+00  0.264040D-01  0.000000D+00
     77  0.536132D-03  0.000000D+00  0.000000D+00  0.000000D+00  0.264040D-01
     78  0.000000D+00 -0.753923D-02 -0.522126D-01  0.000000D+00  0.000000D+00
     79  0.000000D+00  0.522126D-01  0.141542D+00  0.000000D+00  0.000000D+00
     80  0.000000D+00  0.000000D+00  0.000000D+00  0.141542D+00  0.000000D+00
     81  0.264040D-01  0.000000D+00  0.000000D+00  0.000000D+00  0.141542D+00
     82  0.000000D+00 -0.137532D+00 -0.279893D+00  0.000000D+00  0.000000D+00
     83  0.000000D+00  0.159953D-04  0.794057D-02  0.000000D+00  0.000000D+00
     84  0.000000D+00  0.159953D-04  0.794057D-02  0.000000D+00  0.000000D+00
     85  0.000000D+00  0.931692D-04  0.111641D-01  0.000000D+00  0.000000D+00
     86  0.000000D+00  0.000000D+00  0.000000D+00  0.000000D+00  0.000000D+00
     87  0.000000D+00  0.000000D+00  0.000000D+00 -0.282347D-02  0.000000D+00
     88 -0.584271D-05  0.000000D+00  0.000000D+00  0.000000D+00 -0.282347D-02
     89  0.000000D+00  0.000000D+00  0.101279D-02  0.144162D-02  0.000000D+00
     90  0.000000D+00  0.478588D-04  0.620698D-02  0.739529D-02  0.000000D+00
     91  0.000000D+00  0.995689D-03  0.258580D-01 -0.109581D-01  0.000000D+00
     92  0.000000D+00  0.215839D-01  0.933856D-01 -0.331040D-01  0.000000D+00
               36            37            38            39            40 
     36  0.100000D+01
     37  0.000000D+00  0.100000D+01
     38  0.000000D+00  0.333333D+00  0.100000D+01
     39  0.000000D+00  0.333333D+00  0.333333D+00  0.100000D+01
     40  0.000000D+00  0.000000D+00  0.000000D+00  0.000000D+00  0.100000D+01
     41  0.000000D+00  0.000000D+00  0.000000D+00  0.000000D+00  0.000000D+00
     42  0.000000D+00  0.000000D+00  0.000000D+00  0.000000D+00  0.000000D+00
     43  0.730242D-02  0.000000D+00  0.000000D+00  0.000000D+00  0.000000D+00
     44  0.345734D-01  0.000000D+00  0.000000D+00  0.000000D+00  0.000000D+00
     45  0.000000D+00  0.137730D-01  0.451326D-02  0.161797D-02  0.102751D-01
     46  0.000000D+00  0.120267D+00  0.822582D-01  0.703737D-01  0.421768D-01
     47  0.429530D-02  0.000000D+00  0.000000D+00  0.000000D+00  0.000000D+00
     48  0.307564D-01  0.000000D+00  0.000000D+00  0.000000D+00  0.000000D+00
     49 -0.651916D-02  0.000000D+00  0.000000D+00  0.000000D+00  0.000000D+00
     50  0.000000D+00  0.000000D+00  0.000000D+00  0.000000D+00  0.000000D+00
     51 -0.208938D-01  0.000000D+00  0.000000D+00  0.000000D+00  0.000000D+00
     52  0.818434D-01  0.139889D-05  0.101374D-05  0.633240D-05  0.000000D+00
     53 -0.352336D-01 -0.167548D-05 -0.174867D-05 -0.109232D-04  0.000000D+00
     54  0.000000D+00  0.000000D+00  0.000000D+00  0.000000D+00  0.000000D+00
     55 -0.109843D+00 -0.896710D-05 -0.649823D-05 -0.378509D-04  0.000000D+00
     56  0.242942D+00  0.624945D-02  0.607098D-02  0.853551D-02  0.000000D+00
     57 -0.129277D+00 -0.563504D-02 -0.612573D-02 -0.861250D-02  0.000000D+00
     58  0.000000D+00  0.000000D+00  0.000000D+00  0.000000D+00  0.580902D-03
     59 -0.357551D+00 -0.234330D-01 -0.227638D-01 -0.295122D-01  0.000000D+00
     60  0.234330D-01  0.000000D+00  0.000000D+00  0.000000D+00  0.000000D+00
     61  0.227638D-01  0.000000D+00  0.000000D+00  0.000000D+00  0.000000D+00
     62  0.295122D-01  0.000000D+00  0.000000D+00  0.000000D+00  0.000000D+00
     63  0.000000D+00  0.000000D+00  0.000000D+00  0.000000D+00  0.000000D+00
     64  0.372630D-02  0.000000D+00  0.000000D+00  0.000000D+00  0.000000D+00
     65  0.000000D+00  0.000000D+00  0.000000D+00  0.000000D+00  0.000000D+00
     66  0.000000D+00  0.207129D+00  0.361177D+00  0.116021D+00 -0.258857D+00
     67  0.000000D+00  0.371459D+00  0.408549D+00  0.349523D+00 -0.623253D-01
     68  0.000000D+00  0.207129D+00  0.361177D+00  0.116021D+00  0.258857D+00
     69  0.000000D+00  0.371459D+00  0.408549D+00  0.349523D+00  0.623253D-01
     70  0.568561D-02  0.000000D+00  0.000000D+00  0.000000D+00  0.000000D+00
     71  0.399288D-01  0.000000D+00  0.000000D+00  0.000000D+00  0.000000D+00
     72  0.000000D+00  0.000000D+00  0.000000D+00  0.000000D+00  0.000000D+00
     73  0.000000D+00  0.000000D+00  0.000000D+00  0.000000D+00  0.000000D+00
     74 -0.271881D-01  0.000000D+00  0.000000D+00  0.000000D+00  0.000000D+00
     75  0.102474D+00  0.249530D-05  0.249530D-05  0.155871D-04  0.000000D+00
     76  0.000000D+00  0.000000D+00  0.000000D+00  0.000000D+00  0.000000D+00
     77  0.000000D+00  0.000000D+00  0.000000D+00  0.000000D+00  0.000000D+00
     78 -0.137532D+00 -0.159953D-04 -0.159953D-04 -0.931692D-04  0.000000D+00
     79  0.279893D+00  0.794057D-02  0.794057D-02  0.111641D-01  0.000000D+00
     80  0.000000D+00  0.000000D+00  0.000000D+00  0.000000D+00  0.000000D+00
     81  0.000000D+00  0.000000D+00  0.000000D+00  0.000000D+00  0.000000D+00
     82 -0.411932D+00 -0.297741D-01 -0.297741D-01 -0.386007D-01  0.000000D+00
     83  0.297741D-01  0.000000D+00  0.000000D+00  0.000000D+00  0.000000D+00
     84  0.297741D-01  0.000000D+00  0.000000D+00  0.000000D+00  0.000000D+00
     85  0.386007D-01  0.000000D+00  0.000000D+00  0.000000D+00  0.000000D+00
     86  0.000000D+00  0.000000D+00  0.000000D+00  0.000000D+00  0.000000D+00
     87  0.000000D+00  0.000000D+00  0.000000D+00  0.000000D+00  0.000000D+00
     88  0.000000D+00  0.000000D+00  0.000000D+00  0.000000D+00  0.000000D+00
     89  0.446687D-02  0.000000D+00  0.000000D+00  0.000000D+00  0.000000D+00
     90  0.229144D-01  0.000000D+00  0.000000D+00  0.000000D+00  0.000000D+00
     91  0.781693D-01  0.000000D+00  0.000000D+00  0.000000D+00  0.000000D+00
     92  0.236147D+00  0.205022D-03  0.192915D-03  0.809021D-03  0.000000D+00
               41            42            43            44            45 
     41  0.100000D+01
     42  0.000000D+00  0.100000D+01
     43  0.000000D+00  0.000000D+00  0.100000D+01
     44  0.000000D+00  0.000000D+00  0.658292D+00  0.100000D+01
     45  0.000000D+00  0.000000D+00  0.000000D+00  0.000000D+00  0.100000D+01
     46  0.000000D+00  0.000000D+00  0.000000D+00  0.516816D-05  0.658292D+00
     47  0.000000D+00  0.000000D+00  0.430533D-04  0.142782D-01  0.000000D+00
     48  0.000000D+00  0.000000D+00  0.789566D-02  0.109874D+00  0.000000D+00
     49  0.000000D+00  0.000000D+00 -0.152645D-01 -0.102096D+00  0.000000D+00
     50  0.000000D+00  0.000000D+00  0.000000D+00  0.000000D+00  0.000000D+00
     51  0.000000D+00  0.000000D+00  0.744992D-02  0.498287D-01  0.000000D+00
     52  0.247900D-05  0.000000D+00  0.740737D-01  0.262382D+00  0.226477D-05
     53 -0.190255D-05  0.000000D+00 -0.176934D+00 -0.381297D+00  0.158910D-05
     54  0.000000D+00  0.237366D-05  0.000000D+00  0.000000D+00  0.260672D-05
     55 -0.152520D-04  0.000000D+00  0.863532D-01  0.186094D+00 -0.139426D-04
     56  0.114871D-02  0.000000D+00  0.158045D+00  0.424412D+00  0.654163D-02
     57  0.999621D-03  0.000000D+00 -0.225200D+00 -0.505665D+00  0.277141D-02
     58  0.000000D+00  0.215869D-02  0.000000D+00  0.000000D+00  0.454614D-02
     59 -0.372630D-02  0.000000D+00  0.109910D+00  0.246792D+00 -0.243160D-01
     60  0.000000D+00  0.000000D+00  0.137730D-01  0.120267D+00  0.000000D+00
     61  0.000000D+00  0.000000D+00  0.161797D-02  0.703737D-01  0.000000D+00
     62  0.000000D+00  0.000000D+00  0.451326D-02  0.822582D-01  0.000000D+00
     63  0.000000D+00  0.000000D+00  0.000000D+00  0.000000D+00  0.000000D+00
     64  0.000000D+00  0.000000D+00 -0.102751D-01 -0.421768D-01  0.000000D+00
     65  0.000000D+00  0.000000D+00  0.000000D+00  0.000000D+00  0.000000D+00
     66  0.000000D+00  0.000000D+00  0.000000D+00  0.000000D+00  0.571644D-03
     67  0.000000D+00  0.000000D+00  0.000000D+00  0.306039D-04  0.366357D-01
     68  0.000000D+00  0.000000D+00  0.000000D+00  0.000000D+00  0.104764D-04
     69  0.000000D+00  0.000000D+00  0.000000D+00  0.306039D-04  0.720595D-02
     70  0.000000D+00  0.000000D+00  0.320525D-01  0.916644D-01  0.000000D+00
     71  0.000000D+00  0.000000D+00  0.270664D+00  0.473962D+00  0.000000D+00
     72  0.000000D+00  0.000000D+00 -0.190665D+00 -0.138279D+00  0.000000D+00
     73  0.000000D+00  0.000000D+00  0.000000D+00  0.000000D+00  0.000000D+00
     74  0.000000D+00  0.000000D+00  0.312763D+00  0.226830D+00  0.000000D+00
     75  0.000000D+00  0.000000D+00  0.375116D+00  0.702351D+00  0.000000D+00
     76  0.584271D-05  0.000000D+00 -0.267879D+00 -0.303675D+00  0.108052D-05
     77  0.000000D+00  0.584271D-05  0.000000D+00  0.000000D+00  0.000000D+00
     78  0.000000D+00  0.000000D+00  0.439422D+00  0.498140D+00 -0.282065D-05
     79  0.000000D+00  0.000000D+00  0.258482D+00  0.640357D+00  0.400134D-02
     80  0.282347D-02  0.000000D+00 -0.109596D+00 -0.226998D+00  0.569708D-02
     81  0.000000D+00  0.282347D-02  0.000000D+00  0.000000D+00  0.278048D-02
     82  0.000000D+00  0.000000D+00  0.179778D+00  0.372362D+00 -0.148720D-01
     83  0.000000D+00  0.000000D+00  0.207129D+00  0.371459D+00  0.000000D+00
     84  0.000000D+00  0.000000D+00  0.116021D+00  0.349523D+00  0.000000D+00
     85  0.000000D+00  0.000000D+00  0.361177D+00  0.408549D+00  0.000000D+00
     86  0.000000D+00  0.000000D+00  0.000000D+00  0.000000D+00  0.000000D+00
     87  0.000000D+00  0.000000D+00 -0.258857D+00 -0.623253D-01  0.000000D+00
     88  0.000000D+00  0.000000D+00  0.000000D+00  0.000000D+00  0.000000D+00
     89  0.000000D+00  0.000000D+00  0.571644D-03  0.366357D-01  0.000000D+00
     90  0.000000D+00  0.000000D+00  0.366357D-01  0.168873D+00  0.000000D+00
     91  0.000000D+00  0.000000D+00  0.125798D-01  0.128011D+00  0.000000D+00
     92 -0.149594D-03  0.000000D+00  0.128011D+00  0.365469D+00  0.115791D-04
               46            47            48            49            50 
     46  0.100000D+01
     47  0.000000D+00  0.100000D+01
     48  0.768895D-05  0.219059D+00  0.100000D+01
     49  0.186077D-05  0.000000D+00  0.000000D+00  0.100000D+01
     50  0.305236D-05  0.000000D+00  0.000000D+00  0.000000D+00  0.100000D+01
     51 -0.163262D-04  0.000000D+00  0.000000D+00  0.000000D+00  0.000000D+00
     52  0.446206D-03  0.184261D+00  0.812273D+00  0.000000D+00  0.000000D+00
     53  0.192926D-03  0.000000D+00  0.000000D+00  0.569754D+00  0.000000D+00
     54  0.316470D-03  0.000000D+00  0.000000D+00  0.000000D+00  0.569754D+00
     55 -0.169271D-02  0.000000D+00  0.000000D+00  0.000000D+00  0.000000D+00
     56  0.295731D-01  0.697718D-01  0.402091D+00  0.000000D+00  0.000000D+00
     57  0.104833D-01  0.000000D+00  0.000000D+00  0.164679D+00  0.000000D+00
     58  0.171965D-01  0.000000D+00  0.000000D+00  0.000000D+00  0.164679D+00
     59 -0.919790D-01  0.000000D+00  0.000000D+00  0.000000D+00  0.000000D+00
     60  0.232224D-05  0.791027D-01  0.710235D+00  0.000000D+00  0.000000D+00
     61  0.255412D-05  0.791027D-01  0.710235D+00  0.000000D+00  0.000000D+00
     62  0.127421D-04  0.791027D-01  0.710235D+00  0.000000D+00  0.000000D+00
     63  0.000000D+00  0.000000D+00  0.000000D+00  0.000000D+00  0.000000D+00
     64 -0.208405D-05  0.000000D+00  0.000000D+00  0.000000D+00  0.000000D+00
     65 -0.341863D-05  0.000000D+00  0.000000D+00  0.000000D+00  0.000000D+00
     66  0.366357D-01  0.000000D+00  0.000000D+00  0.000000D+00  0.000000D+00
     67  0.168873D+00  0.000000D+00  0.174431D-05 -0.141044D-05  0.000000D+00
     68  0.720595D-02  0.000000D+00  0.000000D+00  0.000000D+00  0.000000D+00
     69  0.617177D-01  0.000000D+00  0.174431D-05 -0.141044D-05  0.000000D+00
     70  0.000000D+00  0.481399D-05  0.194904D-01 -0.426713D-01  0.000000D+00
     71  0.174431D-05  0.194904D-01  0.203366D+00 -0.282219D+00  0.000000D+00
     72  0.141044D-05  0.426713D-01  0.282219D+00 -0.333594D+00  0.000000D+00
     73  0.000000D+00  0.000000D+00  0.000000D+00  0.000000D+00  0.115814D+00
     74 -0.368190D-05  0.000000D+00  0.000000D+00  0.000000D+00  0.000000D+00
     75  0.166693D-03  0.643636D-01  0.359351D+00 -0.253511D+00  0.000000D+00
     76  0.242240D-03  0.129620D+00  0.562375D+00 -0.170740D+00  0.000000D+00
     77  0.118226D-03  0.000000D+00  0.000000D+00  0.000000D+00  0.242739D+00
     78 -0.632356D-03  0.000000D+00  0.000000D+00  0.000000D+00  0.000000D+00
     79  0.196003D-01  0.527094D-01  0.309785D+00 -0.673317D-01  0.000000D+00
     80  0.233527D-01  0.555561D-01  0.303665D+00  0.598522D-01  0.000000D+00
     81  0.113974D-01  0.000000D+00  0.000000D+00  0.000000D+00  0.126532D+00
     82 -0.609614D-01  0.000000D+00  0.000000D+00  0.000000D+00  0.000000D+00
     83  0.000000D+00  0.526767D-01  0.334402D+00 -0.413876D+00  0.000000D+00
     84  0.000000D+00  0.113280D-02  0.928256D-01 -0.142160D+00  0.000000D+00
     85  0.256552D-05  0.113280D-02  0.928256D-01 -0.142160D+00  0.000000D+00
     86  0.000000D+00  0.000000D+00  0.000000D+00  0.000000D+00  0.183392D+00
     87 -0.141032D-05  0.000000D+00  0.000000D+00  0.000000D+00  0.000000D+00
     88  0.000000D+00  0.000000D+00  0.000000D+00  0.000000D+00  0.000000D+00
     89  0.000000D+00  0.320525D-01  0.270664D+00  0.190665D+00  0.000000D+00
     90  0.306039D-04  0.916644D-01  0.473962D+00  0.138279D+00  0.000000D+00
     91  0.115791D-04  0.430533D-04  0.789566D-02 -0.152645D-01  0.000000D+00
     92  0.112594D-02  0.142782D-01  0.109874D+00 -0.102096D+00  0.000000D+00
               51            52            53            54            55 
     51  0.100000D+01
     52  0.000000D+00  0.100000D+01
     53  0.000000D+00  0.000000D+00  0.100000D+01
     54  0.000000D+00  0.000000D+00  0.000000D+00  0.100000D+01
     55  0.569754D+00  0.000000D+00  0.000000D+00  0.000000D+00  0.100000D+01
     56  0.000000D+00  0.727666D+00  0.000000D+00  0.000000D+00  0.000000D+00
     57  0.000000D+00  0.000000D+00  0.588690D+00  0.000000D+00  0.000000D+00
     58  0.000000D+00  0.000000D+00  0.000000D+00  0.588690D+00  0.000000D+00
     59  0.164679D+00  0.000000D+00  0.000000D+00  0.000000D+00  0.588690D+00
     60  0.000000D+00  0.629936D+00  0.000000D+00  0.000000D+00  0.000000D+00
     61  0.000000D+00  0.629936D+00  0.000000D+00  0.000000D+00  0.000000D+00
     62  0.000000D+00  0.629936D+00  0.000000D+00  0.000000D+00  0.000000D+00
     63  0.000000D+00  0.000000D+00  0.000000D+00  0.000000D+00  0.000000D+00
     64  0.000000D+00  0.000000D+00  0.000000D+00  0.000000D+00  0.000000D+00
     65  0.000000D+00  0.000000D+00  0.000000D+00  0.000000D+00  0.000000D+00
     66  0.000000D+00  0.000000D+00 -0.108052D-05  0.000000D+00 -0.282065D-05
     67 -0.368190D-05  0.166693D-03 -0.242240D-03  0.118226D-03 -0.632356D-03
     68  0.000000D+00  0.000000D+00 -0.108052D-05  0.000000D+00 -0.282065D-05
     69 -0.368190D-05  0.166693D-03 -0.242240D-03 -0.118226D-03 -0.632356D-03
     70  0.000000D+00  0.643636D-01 -0.129620D+00  0.000000D+00  0.000000D+00
     71  0.000000D+00  0.359351D+00 -0.562375D+00  0.000000D+00  0.000000D+00
     72  0.000000D+00  0.253511D+00 -0.170740D+00  0.000000D+00  0.000000D+00
     73  0.000000D+00  0.000000D+00  0.000000D+00  0.242739D+00  0.000000D+00
     74  0.115814D+00  0.000000D+00  0.000000D+00  0.000000D+00  0.242739D+00
     75  0.000000D+00  0.579631D+00 -0.605354D+00  0.000000D+00  0.000000D+00
     76  0.000000D+00  0.605354D+00 -0.525884D-01  0.000000D+00  0.000000D+00
     77  0.000000D+00  0.000000D+00  0.000000D+00  0.579631D+00  0.000000D+00
     78  0.242739D+00  0.000000D+00  0.000000D+00  0.000000D+00  0.579631D+00
     79  0.000000D+00  0.581168D+00 -0.250193D+00  0.000000D+00  0.000000D+00
     80  0.000000D+00  0.491037D+00  0.258780D+00  0.000000D+00  0.000000D+00
     81  0.000000D+00  0.000000D+00  0.000000D+00  0.470171D+00  0.000000D+00
     82  0.126532D+00  0.000000D+00  0.000000D+00  0.000000D+00  0.470171D+00
     83  0.000000D+00  0.353148D+00 -0.422973D+00  0.000000D+00  0.000000D+00
     84  0.000000D+00  0.255918D+00 -0.441451D+00  0.000000D+00  0.000000D+00
     85  0.000000D+00  0.255918D+00 -0.441451D+00  0.000000D+00  0.000000D+00
     86  0.000000D+00  0.000000D+00  0.000000D+00  0.161252D+00  0.000000D+00
     87  0.183392D+00  0.000000D+00  0.000000D+00  0.000000D+00  0.161252D+00
     88  0.000000D+00  0.000000D+00  0.000000D+00  0.000000D+00  0.000000D+00
     89  0.312763D+00  0.375116D+00  0.267879D+00  0.000000D+00  0.439422D+00
     90  0.226830D+00  0.702351D+00  0.303675D+00  0.000000D+00  0.498140D+00
     91 -0.744992D-02  0.740737D-01 -0.176934D+00  0.000000D+00 -0.863532D-01
     92 -0.498287D-01  0.262382D+00 -0.381297D+00  0.000000D+00 -0.186094D+00
               56            57            58            59            60 
     56  0.100000D+01
     57  0.000000D+00  0.100000D+01
     58  0.000000D+00  0.000000D+00  0.100000D+01
     59  0.000000D+00  0.000000D+00  0.000000D+00  0.100000D+01
     60  0.323540D+00  0.000000D+00  0.000000D+00  0.000000D+00  0.100000D+01
     61  0.323540D+00  0.000000D+00  0.000000D+00  0.000000D+00  0.333333D+00
     62  0.323540D+00  0.000000D+00  0.000000D+00  0.000000D+00  0.333333D+00
     63  0.000000D+00  0.000000D+00  0.000000D+00  0.000000D+00  0.000000D+00
     64  0.000000D+00  0.000000D+00  0.000000D+00  0.000000D+00  0.000000D+00
     65  0.000000D+00  0.000000D+00  0.000000D+00  0.000000D+00  0.000000D+00
     66  0.400134D-02 -0.569708D-02  0.278048D-02 -0.148720D-01  0.000000D+00
     67  0.196003D-01 -0.233527D-01  0.113974D-01 -0.609614D-01  0.000000D+00
     68  0.400134D-02 -0.569708D-02 -0.278048D-02 -0.148720D-01  0.000000D+00
     69  0.196003D-01 -0.233527D-01 -0.113974D-01 -0.609614D-01  0.000000D+00
     70  0.527094D-01 -0.555561D-01  0.000000D+00  0.000000D+00  0.526767D-01
     71  0.309785D+00 -0.303665D+00  0.000000D+00  0.000000D+00  0.334402D+00
     72  0.673317D-01  0.598522D-01  0.000000D+00  0.000000D+00  0.413876D+00
     73  0.000000D+00  0.000000D+00  0.126532D+00  0.000000D+00  0.000000D+00
     74  0.000000D+00  0.000000D+00  0.000000D+00  0.126532D+00  0.000000D+00
     75  0.581168D+00 -0.491037D+00  0.000000D+00  0.000000D+00  0.353148D+00
     76  0.250193D+00  0.258780D+00  0.000000D+00  0.000000D+00  0.422973D+00
     77  0.000000D+00  0.000000D+00  0.470171D+00  0.000000D+00  0.000000D+00
     78  0.000000D+00  0.000000D+00  0.000000D+00  0.470171D+00  0.000000D+00
     79  0.867984D+00 -0.461882D+00  0.000000D+00  0.000000D+00  0.254635D+00
     80  0.461882D+00  0.622202D+00  0.000000D+00  0.000000D+00  0.229601D+00
     81  0.000000D+00  0.000000D+00  0.867984D+00  0.000000D+00  0.000000D+00
     82  0.000000D+00  0.000000D+00  0.000000D+00  0.867984D+00  0.000000D+00
     83  0.254635D+00 -0.229601D+00  0.000000D+00  0.000000D+00  0.487216D+00
     84  0.247363D+00 -0.249594D+00  0.000000D+00  0.000000D+00  0.154963D+00
     85  0.247363D+00 -0.249594D+00  0.000000D+00  0.000000D+00  0.154963D+00
     86  0.000000D+00  0.000000D+00  0.236690D-01  0.000000D+00  0.000000D+00
     87  0.000000D+00  0.000000D+00  0.000000D+00  0.236690D-01  0.000000D+00
     88  0.000000D+00  0.000000D+00  0.000000D+00  0.000000D+00  0.000000D+00
     89  0.258482D+00  0.109596D+00  0.000000D+00  0.179778D+00  0.207129D+00
     90  0.640357D+00  0.226998D+00  0.000000D+00  0.372362D+00  0.371459D+00
     91  0.158045D+00 -0.225200D+00  0.000000D+00 -0.109910D+00  0.137730D-01
     92  0.424412D+00 -0.505665D+00  0.000000D+00 -0.246792D+00  0.120267D+00
               61            62            63            64            65 
     61  0.100000D+01
     62  0.333333D+00  0.100000D+01
     63  0.000000D+00  0.000000D+00  0.100000D+01
     64  0.000000D+00  0.000000D+00  0.000000D+00  0.100000D+01
     65  0.000000D+00  0.000000D+00  0.000000D+00  0.000000D+00  0.100000D+01
     66  0.000000D+00  0.000000D+00  0.000000D+00  0.000000D+00  0.000000D+00
     67  0.000000D+00  0.256552D-05  0.000000D+00  0.141032D-05  0.000000D+00
     68  0.000000D+00  0.000000D+00  0.000000D+00  0.000000D+00  0.000000D+00
     69  0.000000D+00  0.256552D-05  0.000000D+00  0.141032D-05  0.000000D+00
     70  0.113280D-02  0.113280D-02  0.000000D+00  0.000000D+00  0.000000D+00
     71  0.928256D-01  0.928256D-01  0.000000D+00  0.000000D+00  0.000000D+00
     72  0.142160D+00  0.142160D+00  0.000000D+00  0.000000D+00  0.000000D+00
     73  0.000000D+00  0.000000D+00 -0.183392D+00  0.000000D+00  0.000000D+00
     74  0.000000D+00  0.000000D+00  0.000000D+00 -0.183392D+00  0.000000D+00
     75  0.255918D+00  0.255918D+00  0.000000D+00  0.000000D+00  0.000000D+00
     76  0.441451D+00  0.441451D+00  0.000000D+00  0.000000D+00  0.000000D+00
     77  0.000000D+00  0.000000D+00 -0.161252D+00  0.000000D+00  0.000000D+00
     78  0.000000D+00  0.000000D+00  0.000000D+00 -0.161252D+00  0.000000D+00
     79  0.247363D+00  0.247363D+00  0.000000D+00  0.000000D+00  0.000000D+00
     80  0.249594D+00  0.249594D+00  0.000000D+00  0.000000D+00  0.000000D+00
     81  0.000000D+00  0.000000D+00 -0.236690D-01  0.000000D+00  0.000000D+00
     82  0.000000D+00  0.000000D+00  0.000000D+00 -0.236690D-01  0.000000D+00
     83  0.154963D+00  0.154963D+00  0.000000D+00  0.000000D+00  0.000000D+00
     84  0.753228D-01  0.251076D-01  0.000000D+00  0.000000D+00  0.000000D+00
     85  0.251076D-01  0.753228D-01  0.000000D+00  0.000000D+00  0.000000D+00
     86  0.000000D+00  0.000000D+00 -0.314243D+00  0.000000D+00  0.000000D+00
     87  0.000000D+00  0.000000D+00  0.000000D+00 -0.314243D+00  0.000000D+00
     88  0.000000D+00  0.000000D+00  0.000000D+00  0.000000D+00  0.753228D-01
     89  0.116021D+00  0.361177D+00  0.000000D+00  0.258857D+00  0.000000D+00
     90  0.349523D+00  0.408549D+00  0.000000D+00  0.623253D-01  0.000000D+00
     91  0.161797D-02  0.451326D-02  0.000000D+00  0.102751D-01  0.000000D+00
     92  0.703737D-01  0.822582D-01  0.000000D+00  0.421768D-01  0.000000D+00
               66            67            68            69            70 
     66  0.100000D+01
     67  0.658292D+00  0.100000D+01
     68  0.125798D-01  0.128011D+00  0.100000D+01
     69  0.128011D+00  0.365469D+00  0.658292D+00  0.100000D+01
     70  0.000000D+00  0.000000D+00  0.000000D+00  0.000000D+00  0.100000D+01
     71  0.000000D+00  0.768895D-05  0.000000D+00  0.768895D-05  0.219059D+00
     72  0.000000D+00 -0.186077D-05  0.000000D+00 -0.186077D-05  0.000000D+00
     73  0.000000D+00  0.305236D-05  0.000000D+00 -0.305236D-05  0.000000D+00
     74  0.000000D+00 -0.163262D-04  0.000000D+00 -0.163262D-04  0.000000D+00
     75  0.226477D-05  0.446206D-03  0.226477D-05  0.446206D-03  0.184261D+00
     76 -0.158910D-05 -0.192926D-03 -0.158910D-05 -0.192926D-03  0.000000D+00
     77  0.260672D-05  0.316470D-03 -0.260672D-05 -0.316470D-03  0.000000D+00
     78 -0.139426D-04 -0.169271D-02 -0.139426D-04 -0.169271D-02  0.000000D+00
     79  0.654163D-02  0.295731D-01  0.654163D-02  0.295731D-01  0.697718D-01
     80 -0.277141D-02 -0.104833D-01 -0.277141D-02 -0.104833D-01  0.000000D+00
     81  0.454614D-02  0.171965D-01 -0.454614D-02 -0.171965D-01  0.000000D+00
     82 -0.243160D-01 -0.919790D-01 -0.243160D-01 -0.919790D-01  0.000000D+00
     83  0.000000D+00  0.232224D-05  0.000000D+00  0.232224D-05  0.791027D-01
     84  0.000000D+00  0.255412D-05  0.000000D+00  0.255412D-05  0.791027D-01
     85  0.000000D+00  0.127421D-04  0.000000D+00  0.127421D-04  0.791027D-01
     86  0.000000D+00  0.000000D+00  0.000000D+00  0.000000D+00  0.000000D+00
     87  0.000000D+00  0.208405D-05  0.000000D+00  0.208405D-05  0.000000D+00
     88  0.000000D+00 -0.341863D-05  0.000000D+00  0.341863D-05  0.000000D+00
     89  0.000000D+00  0.000000D+00  0.000000D+00  0.000000D+00  0.430533D-04
     90  0.000000D+00  0.516816D-05  0.000000D+00  0.516816D-05  0.142782D-01
     91  0.000000D+00  0.200738D-03  0.000000D+00  0.200738D-03  0.320525D-01
     92  0.200738D-03  0.666741D-02  0.200738D-03  0.666741D-02  0.916644D-01
               71            72            73            74            75 
     71  0.100000D+01
     72  0.000000D+00  0.100000D+01
     73  0.000000D+00  0.000000D+00  0.100000D+01
     74  0.000000D+00  0.000000D+00  0.000000D+00  0.100000D+01
     75  0.812273D+00  0.000000D+00  0.000000D+00  0.000000D+00  0.100000D+01
     76  0.000000D+00  0.569754D+00  0.000000D+00  0.000000D+00  0.000000D+00
     77  0.000000D+00  0.000000D+00  0.569754D+00  0.000000D+00  0.000000D+00
     78  0.000000D+00  0.000000D+00  0.000000D+00  0.569754D+00  0.000000D+00
     79  0.402091D+00  0.000000D+00  0.000000D+00  0.000000D+00  0.727666D+00
     80  0.000000D+00  0.164679D+00  0.000000D+00  0.000000D+00  0.000000D+00
     81  0.000000D+00  0.000000D+00  0.164679D+00  0.000000D+00  0.000000D+00
     82  0.000000D+00  0.000000D+00  0.000000D+00  0.164679D+00  0.000000D+00
     83  0.710235D+00  0.000000D+00  0.000000D+00  0.000000D+00  0.629936D+00
     84  0.710235D+00  0.000000D+00  0.000000D+00  0.000000D+00  0.629936D+00
     85  0.710235D+00  0.000000D+00  0.000000D+00  0.000000D+00  0.629936D+00
     86  0.000000D+00  0.000000D+00  0.000000D+00  0.000000D+00  0.000000D+00
     87  0.000000D+00  0.000000D+00  0.000000D+00  0.000000D+00  0.000000D+00
     88  0.000000D+00  0.000000D+00  0.000000D+00  0.000000D+00  0.000000D+00
     89  0.789566D-02  0.152645D-01  0.000000D+00  0.744992D-02  0.740737D-01
     90  0.109874D+00  0.102096D+00  0.000000D+00  0.498287D-01  0.262382D+00
     91  0.270664D+00 -0.190665D+00  0.000000D+00 -0.312763D+00  0.375116D+00
     92  0.473962D+00 -0.138279D+00  0.000000D+00 -0.226830D+00  0.702351D+00
               76            77            78            79            80 
     76  0.100000D+01
     77  0.000000D+00  0.100000D+01
     78  0.000000D+00  0.000000D+00  0.100000D+01
     79  0.000000D+00  0.000000D+00  0.000000D+00  0.100000D+01
     80  0.588690D+00  0.000000D+00  0.000000D+00  0.000000D+00  0.100000D+01
     81  0.000000D+00  0.588690D+00  0.000000D+00  0.000000D+00  0.000000D+00
     82  0.000000D+00  0.000000D+00  0.588690D+00  0.000000D+00  0.000000D+00
     83  0.000000D+00  0.000000D+00  0.000000D+00  0.323540D+00  0.000000D+00
     84  0.000000D+00  0.000000D+00  0.000000D+00  0.323540D+00  0.000000D+00
     85  0.000000D+00  0.000000D+00  0.000000D+00  0.323540D+00  0.000000D+00
     86  0.000000D+00  0.000000D+00  0.000000D+00  0.000000D+00  0.000000D+00
     87  0.000000D+00  0.000000D+00  0.000000D+00  0.000000D+00  0.000000D+00
     88  0.000000D+00  0.000000D+00  0.000000D+00  0.000000D+00  0.000000D+00
     89  0.176934D+00  0.000000D+00  0.863532D-01  0.158045D+00  0.225200D+00
     90  0.381297D+00  0.000000D+00  0.186094D+00  0.424412D+00  0.505665D+00
     91 -0.267879D+00  0.000000D+00 -0.439422D+00  0.258482D+00 -0.109596D+00
     92 -0.303675D+00  0.000000D+00 -0.498140D+00  0.640357D+00 -0.226998D+00
               81            82            83            84            85 
     81  0.100000D+01
     82  0.000000D+00  0.100000D+01
     83  0.000000D+00  0.000000D+00  0.100000D+01
     84  0.000000D+00  0.000000D+00  0.333333D+00  0.100000D+01
     85  0.000000D+00  0.000000D+00  0.333333D+00  0.333333D+00  0.100000D+01
     86  0.000000D+00  0.000000D+00  0.000000D+00  0.000000D+00  0.000000D+00
     87  0.000000D+00  0.000000D+00  0.000000D+00  0.000000D+00  0.000000D+00
     88  0.000000D+00  0.000000D+00  0.000000D+00  0.000000D+00  0.000000D+00
     89  0.000000D+00  0.109910D+00  0.137730D-01  0.161797D-02  0.451326D-02
     90  0.000000D+00  0.246792D+00  0.120267D+00  0.703737D-01  0.822582D-01
[...]
  90        2S         -0.00064   0.00214   0.00000   0.00072   0.00000
  91 12  H  1S          0.00000   0.00000   0.00000   0.00010   0.00000
  92        2S          0.00006   0.00017   0.00000   0.00038   0.00000
                          66        67        68        69        70
  66 8   H  1S          0.21499
  67        2S          0.09347   0.10394
  68 9   H  1S         -0.00049  -0.00692   0.21499
  69        2S         -0.00692  -0.01879   0.09347   0.10394
  70 10  C  1S          0.00000   0.00000   0.00000   0.00000   2.05330
  71        2S          0.00000   0.00000   0.00000   0.00000  -0.01398
  72        2PX         0.00000   0.00000   0.00000   0.00000   0.00000
  73        2PY         0.00000   0.00000   0.00000   0.00000   0.00000
  74        2PZ         0.00000   0.00000   0.00000   0.00000   0.00000
  75        3S          0.00000   0.00000   0.00000   0.00000  -0.03042
  76        3PX         0.00000   0.00000   0.00000   0.00000   0.00000
  77        3PY         0.00000   0.00000   0.00000   0.00000   0.00000
  78        3PZ         0.00000   0.00000   0.00000   0.00000   0.00000
  79        4S         -0.00001   0.00000  -0.00001   0.00000   0.00312
  80        4PX         0.00000  -0.00001   0.00000  -0.00001   0.00000
  81        4PY         0.00000   0.00000   0.00000   0.00000   0.00000
  82        4PZ        -0.00001  -0.00001  -0.00001  -0.00001   0.00000
  83        5XX         0.00000   0.00000   0.00000   0.00000  -0.00147
  84        5YY         0.00000   0.00000   0.00000   0.00000  -0.00086
  85        5ZZ         0.00000   0.00000   0.00000   0.00000  -0.00169
  86        5XY         0.00000   0.00000   0.00000   0.00000   0.00000
  87        5XZ         0.00000   0.00000   0.00000   0.00000   0.00000
  88        5YZ         0.00000   0.00000   0.00000   0.00000   0.00000
  89 11  H  1S          0.00000   0.00000   0.00000   0.00000   0.00000
  90        2S          0.00000   0.00000   0.00000   0.00000   0.00018
  91 12  H  1S          0.00000   0.00000   0.00000   0.00000  -0.00192
  92        2S          0.00000   0.00000   0.00000   0.00000  -0.00129
                          71        72        73        74        75
  71        2S          0.32469
  72        2PX         0.00000   0.42301
  73        2PY         0.00000   0.00000   0.32289
  74        2PZ         0.00000   0.00000   0.00000   0.41293
  75        3S          0.21900   0.00000   0.00000   0.00000   0.23699
  76        3PX         0.00000   0.07923   0.00000   0.00000   0.00000
  77        3PY         0.00000   0.00000   0.11619   0.00000   0.00000
  78        3PZ         0.00000   0.00000   0.00000   0.09578   0.00000
  79        4S         -0.00890   0.00000   0.00000   0.00000  -0.01693
  80        4PX         0.00000   0.00564   0.00000   0.00000   0.00000
  81        4PY         0.00000   0.00000   0.00731   0.00000   0.00000
  82        4PZ         0.00000   0.00000   0.00000   0.00589   0.00000
  83        5XX         0.00018   0.00000   0.00000   0.00000  -0.00018
  84        5YY        -0.01212   0.00000   0.00000   0.00000  -0.00842
  85        5ZZ         0.00336   0.00000   0.00000   0.00000   0.00467
  86        5XY         0.00000   0.00000   0.00000   0.00000   0.00000
  87        5XZ         0.00000   0.00000   0.00000   0.00000   0.00000
  88        5YZ         0.00000   0.00000   0.00000   0.00000   0.00000
  89 11  H  1S         -0.00023  -0.00058   0.00000  -0.00014  -0.00235
  90        2S         -0.00292  -0.00593   0.00000  -0.00211  -0.00561
  91 12  H  1S          0.03162   0.02613   0.00000   0.07082   0.04309
  92        2S          0.01551   0.01346   0.00000   0.03843   0.02685
                          76        77        78        79        80
  76        3PX         0.04764
  77        3PY         0.00000   0.12881
  78        3PZ         0.00000   0.00000   0.06892
  79        4S          0.00000   0.00000   0.00000   0.00645
  80        4PX         0.00697   0.00000   0.00000   0.00000   0.00311
  81        4PY         0.00000   0.01651   0.00000   0.00000   0.00000
  82        4PZ         0.00000   0.00000   0.00898   0.00000   0.00000
  83        5XX         0.00000   0.00000   0.00000   0.00011   0.00000
  84        5YY         0.00000   0.00000   0.00000   0.00023   0.00000
  85        5ZZ         0.00000   0.00000   0.00000  -0.00031   0.00000
  86        5XY         0.00000   0.00000   0.00000   0.00000   0.00000
  87        5XZ         0.00000   0.00000   0.00000   0.00000   0.00000
  88        5YZ         0.00000   0.00000   0.00000   0.00000   0.00000
  89 11  H  1S         -0.00294   0.00000  -0.00133   0.00249  -0.00060
  90        2S         -0.00773   0.00000  -0.00434   0.00271  -0.00224
  91 12  H  1S          0.01460   0.00000   0.04102  -0.00310   0.00167
  92        2S          0.01078   0.00000   0.03528  -0.00295   0.00215
                          81        82        83        84        85
  81        4PY         0.00611
  82        4PZ         0.00000   0.00416
  83        5XX         0.00000   0.00000   0.00051
  84        5YY         0.00000   0.00000   0.00003   0.00101
  85        5ZZ         0.00000   0.00000  -0.00010  -0.00005   0.00125
  86        5XY         0.00000   0.00000   0.00000   0.00000   0.00000
  87        5XZ         0.00000   0.00000   0.00000   0.00000   0.00000
  88        5YZ         0.00000   0.00000   0.00000   0.00000   0.00000
  89 11  H  1S          0.00000  -0.00141   0.00003   0.00000   0.00000
  90        2S          0.00000  -0.00302   0.00000   0.00006   0.00017
  91 12  H  1S          0.00000   0.00356  -0.00055  -0.00071   0.00314
  92        2S          0.00000   0.00618  -0.00073  -0.00066   0.00212
                          86        87        88        89        90
  86        5XY         0.00054
  87        5XZ         0.00000   0.00188
  88        5YZ         0.00000   0.00000   0.00000
  89 11  H  1S          0.00000   0.00010   0.00000   0.21528
  90        2S          0.00000   0.00039   0.00000   0.09406   0.10539
  91 12  H  1S          0.00000   0.00356   0.00000   0.00000   0.00034
  92        2S          0.00000   0.00071   0.00000   0.00034   0.00325
                          91        92
  91 12  H  1S          0.21475
  92        2S          0.09289   0.10258
     Gross orbital populations:
                           1
   1 1   H  1S          0.52703
   2        2S          0.28744
   3 2   C  1S          1.99181
   4        2S          0.70820
   5        2PX         0.76629
   6        2PY         0.73234
   7        2PZ         0.54150
   8        3S          0.59691
   9        3PX         0.21345
  10        3PY         0.30908
  11        3PZ         0.39826
  12        4S          0.00691
  13        4PX         0.01607
  14        4PY         0.02151
  15        4PZ         0.05781
  16        5XX         0.00408
  17        5YY         0.01309
  18        5ZZ        -0.02579
  19        5XY         0.01470
  20        5XZ         0.00452
  21        5YZ         0.00000
  22 3   H  1S          0.52749
  23        2S          0.28841
  24 4   C  1S          1.99181
  25        2S          0.70820
  26        2PX         0.76629
  27        2PY         0.73234
  28        2PZ         0.54150
  29        3S          0.59691
  30        3PX         0.21345
  31        3PY         0.30908
  32        3PZ         0.39826
  33        4S          0.00691
  34        4PX         0.01607
  35        4PY         0.02151
  36        4PZ         0.05781
  37        5XX         0.00408
  38        5YY         0.01309
  39        5ZZ        -0.02579
  40        5XY         0.01470
  41        5XZ         0.00452
  42        5YZ         0.00000
  43 5   H  1S          0.52800
  44        2S          0.28924
  45 6   H  1S          0.52749
  46        2S          0.28841
  47 7   C  1S          1.99186
  48        2S          0.70770
  49        2PX         0.76608
  50        2PY         0.54133
  51        2PZ         0.73239
  52        3S          0.59945
  53        3PX         0.21551
  54        3PY         0.40018
  55        3PZ         0.30810
  56        4S         -0.00208
  57        4PX         0.02056
  58        4PY         0.05404
  59        4PZ         0.02042
  60        5XX         0.00395
  61        5YY        -0.02589
  62        5ZZ         0.01296
  63        5XY         0.00451
  64        5XZ         0.01471
  65        5YZ         0.00000
  66 8   H  1S          0.52749
  67        2S          0.28841
  68 9   H  1S          0.52749
  69        2S          0.28841
  70 10  C  1S          1.99186
  71        2S          0.70770
  72        2PX         0.76608
  73        2PY         0.54133
  74        2PZ         0.73239
  75        3S          0.59945
  76        3PX         0.21551
  77        3PY         0.40018
  78        3PZ         0.30810
  79        4S         -0.00208
  80        4PX         0.02056
  81        4PY         0.05404
  82        4PZ         0.02042
  83        5XX         0.00395
  84        5YY        -0.02589
  85        5ZZ         0.01296
  86        5XY         0.00451
  87        5XZ         0.01471
  88        5YZ         0.00000
  89 11  H  1S          0.52800
  90        2S          0.28924
  91 12  H  1S          0.52703
  92        2S          0.28744
          Condensed to atoms (all electrons):
              1          2          3          4          5          6
     1  H    0.503105   0.001668  -0.000004  -0.001020   0.003927  -0.000004
     2  C    0.001668   5.020531   0.382834   0.660013   0.000000   0.382834
     3  H   -0.000004   0.382834   0.505870  -0.037006   0.000000  -0.033127
     4  C   -0.001020   0.660013  -0.037006   5.020531   0.000049  -0.037006
     5  H    0.003927   0.000000   0.000000   0.000049   0.508783   0.000000
     6  H   -0.000004   0.382834  -0.033127  -0.037006   0.000000   0.505870
     7  C    0.378772  -0.000720  -0.000050  -0.001445  -0.037319  -0.000050
     8  H    0.000000  -0.037006   0.003936   0.382834   0.000000  -0.006622
     9  H    0.000000  -0.037006  -0.006622   0.382834   0.000000   0.003936
    10  C   -0.031932  -0.001445   0.000066  -0.000720   0.382025   0.000066
    11  H   -0.033421   0.000049   0.000000   0.000000  -0.006806   0.000000
    12  H   -0.006624  -0.001020   0.000000   0.001668  -0.033421   0.000000
              7          8          9         10         11         12
     1  H    0.378772   0.000000   0.000000  -0.031932  -0.033421  -0.006624
     2  C   -0.000720  -0.037006  -0.037006  -0.001445   0.000049  -0.001020
     3  H   -0.000050   0.003936  -0.006622   0.000066   0.000000   0.000000
     4  C   -0.001445   0.382834   0.382834  -0.000720   0.000000   0.001668
     5  H   -0.037319   0.000000   0.000000   0.382025  -0.006806  -0.033421
     6  H   -0.000050  -0.006622   0.003936   0.000066   0.000000   0.000000
     7  C    4.999816   0.000066   0.000066   0.676535   0.382025  -0.031932
     8  H    0.000066   0.505870  -0.033127  -0.000050   0.000000  -0.000004
     9  H    0.000066  -0.033127   0.505870  -0.000050   0.000000  -0.000004
    10  C    0.676535  -0.000050  -0.000050   4.999816  -0.037319   0.378772
    11  H    0.382025   0.000000   0.000000  -0.037319   0.508783   0.003927
    12  H   -0.031932  -0.000004  -0.000004   0.378772   0.003927   0.503105
 Mulliken atomic charges:
              1
     1  H    0.185533
     2  C   -0.370734
     3  H    0.184102
     4  C   -0.370734
     5  H    0.182761
     6  H    0.184102
     7  C   -0.365765
     8  H    0.184102
     9  H    0.184102
    10  C   -0.365765
    11  H    0.182761
    12  H    0.185533
 Sum of Mulliken atomic charges =   0.00000
 Mulliken charges with hydrogens summed into heavy atoms:
              1
     2  C   -0.002529
     4  C   -0.002529
     7  C    0.002529
    10  C    0.002529
 Sum of Mulliken charges with hydrogens summed into heavy atoms =   0.00000
 Electronic spatial extent (au):  <R**2>=           1597.5643
 Charge=              0.0000 electrons
 Dipole moment (field-independent basis, Debye):
    X=              0.0000    Y=              0.0000    Z=             -0.0527  Tot=              0.0527
 Quadrupole moment (field-independent basis, Debye-Ang):
   XX=            -24.8774   YY=            -28.5447   ZZ=            -28.9892
   XY=              0.0000   XZ=              0.0000   YZ=              0.0000
 Traceless Quadrupole moment (field-independent basis, Debye-Ang):
   XX=              2.5931   YY=             -1.0743   ZZ=             -1.5188
   XY=              0.0000   XZ=              0.0000   YZ=              0.0000
 Octapole moment (field-independent basis, Debye-Ang**2):
  XXX=              0.0000  YYY=              0.0000  ZZZ=           -189.4738  XYY=              0.0000
  XXY=              0.0000  XXZ=            -62.2993  XZZ=              0.0000  YZZ=              0.0000
  YYZ=            -80.7306  XYZ=              0.0000
 Hexadecapole moment (field-independent basis, Debye-Ang**3):
 XXXX=           -143.8695 YYYY=            -51.3499 ZZZZ=          -1936.7376 XXXY=              0.0000
 XXXZ=              0.0000 YYYX=              0.0000 YYYZ=              0.0000 ZZZX=              0.0000
 ZZZY=              0.0000 XXYY=            -31.0700 XXZZ=           -343.0195 YYZZ=           -422.2070
 XXYZ=              0.0000 YYXZ=              0.0000 ZZXY=              0.0000
 N-N= 9.256125971780D+01 E-N=-5.474752261296D+02  KE= 1.553443718856D+02
 Orbital energies and kinetic energies (alpha):
                                 1                 2
   1         O               -10.200231         15.874716
   2         O               -10.199424         15.886894
   3         O               -10.195782         15.875260
   4         O               -10.194974         15.887075
   5         O                -0.763682          1.528187
   6         O                -0.759169          1.528766
   7         O                -0.586029          1.282495
   8         O                -0.581675          1.282396
   9         O                -0.474163          0.935978
  10         O                -0.469646          0.936093
  11         O                -0.424254          1.269231
  12         O                -0.419892          1.269047
  13         O                -0.364666          1.044765
  14         O                -0.360251          1.044532
  15         O                -0.277729          1.013672
  16         O                -0.273223          1.013079
  17         V                -0.012475          0.941704
  18         V                -0.007469          0.958313
  19         V                 0.012718          0.340478
  20         V                 0.023113          0.291309
  21         V                 0.032504          0.331463
  22         V                 0.043371          0.323041
  23         V                 0.043700          0.305861
  24         V                 0.060017          0.379962
  25         V                 0.077044          0.247389
  26         V                 0.077223          0.307738
  27         V                 0.086379          0.301070
  28         V                 0.092296          0.252968
  29         V                 0.103057          0.419512
  30         V                 0.118315          0.488409
  31         V                 0.133196          0.571002
  32         V                 0.143706          0.519258
  33         V                 0.150704          0.404074
  34         V                 0.167648          0.733214
  35         V                 0.177072          0.652968
  36         V                 0.191108          0.866608
  37         V                 0.197032          0.877876
  38         V                 0.238304          0.763632
  39         V                 0.238818          0.892062
  40         V                 0.274811          1.030086
  41         V                 0.343604          1.166846
  42         V                 0.344984          1.361737
  43         V                 0.351091          1.192417
  44         V                 0.370767          1.394486
  45         V                 0.578606          1.606137
  46         V                 0.584358          1.652213
  47         V                 0.657276          1.836557
  48         V                 0.665268          1.886284
  49         V                 0.680044          2.102858
  50         V                 0.701601          2.060316
  51         V                 0.722919          2.272673
  52         V                 0.726662          2.302860
  53         V                 0.755520          2.813325
  54         V                 0.787671          2.795631
  55         V                 0.829196          1.707894
  56         V                 0.866776          1.820366
  57         V                 0.900249          2.276176
  58         V                 0.909480          2.236479
  59         V                 0.937281          2.778363
  60         V                 0.941862          2.763231
  61         V                 0.953891          2.500442
  62         V                 0.990135          2.531541
  63         V                 1.053563          2.469871
  64         V                 1.058934          2.567103
  65         V                 1.162918          2.262980
  66         V                 1.176958          2.245933
  67         V                 1.218248          2.244382
  68         V                 1.227741          2.257141
  69         V                 1.446706          2.640010
  70         V                 1.450577          2.641490
  71         V                 1.537417          2.655157
  72         V                 1.541984          2.655180
  73         V                 1.814901          2.968536
  74         V                 1.819430          2.968550
  75         V                 1.883857          3.097268
  76         V                 1.891257          3.096109
  77         V                 1.998498          3.474804
  78         V                 2.008843          3.479535
  79         V                 2.107006          3.469558
  80         V                 2.111677          3.470452
  81         V                 2.292728          3.607763
  82         V                 2.298854          3.603960
  83         V                 2.369361          3.596262
  84         V                 2.372950          3.596092
  85         V                 2.663545          4.101856
  86         V                 2.669124          4.105297
  87         V                 2.698776          4.771676
  88         V                 2.709204          4.776755
  89         V                 4.116101         10.139495
  90         V                 4.154826         10.196147
  91         V                 4.249484         10.023699
  92         V                 4.271472         10.039486
 Total kinetic energy from orbitals= 1.553443718856D+02

 Test job not archived.
 1\1\GINC-N23\SP\RB3LYP\6-31+G(d)\C4H8\SIM_JOBR9774\22-Mar-2018\0\\#b3l
 yp/6-31+g* scf=tight nosymm punch=mo iop(3/33=1) pop=full\\9_11_07\\0,
 1\H,0,1.242623,0.,4.065194\C,0,0.672749,0.,0.\H,0,1.242623,-0.934806,0
 .\C,0,-0.672749,0.,0.\H,0,-1.242623,0.,5.934806\H,0,1.242623,0.934806,
 0.\C,0,0.672749,0.,5.\H,0,-1.242623,0.934806,0.\H,0,-1.242623,-0.93480
 6,0.\C,0,-0.672749,0.,5.\H,0,1.242623,0.,5.934806\H,0,-1.242623,0.,4.0
 65194\\Version=EM64L-G09RevA.01\HF=-157.1861122\RMSD=3.930e-09\Dipole=
 0.,0.,-0.0207335\Quadrupole=1.9278795,-0.7987064,-1.1291731,0.,0.,0.\P
 G=C02V [SGV(C4H4),X(H4)]\\@


 Ideas are like rabbits. You get a couple and learn
 how to handle them, and pretty soon you have a dozen.
                                    -- John Steinbeck
 Job cpu time:  0 days  0 hours  0 minutes 24.5 seconds.
 File lengths (MBytes):  RWF=      9 Int=      0 D2E=      0 Chk=      1 Scr=      1
 Normal termination of Gaussian 09 at Thu Mar 22 11:00:52 2018.
