 Entering Gaussian System, Link 0=g03
 Input=20_2.com
 Output=20_2.log
 Initial command:
 /usr/local/g03/l1.exe /export/home/joe2/code/J_from_g03/examples/ethylene/Gau-17591.inp -scrdir=/export/home/joe2/code/J_from_g03/examples/ethylene/
 Entering Link 1 = /usr/local/g03/l1.exe PID=     17592.
  
 Copyright (c) 1988,1990,1992,1993,1995,1998,2003, Gaussian, Inc.
                  All Rights Reserved.
  
 This is the Gaussian(R) 03 program.  It is based on the
 the Gaussian(R) 98 system (copyright 1998, Gaussian, Inc.),
 the Gaussian(R) 94 system (copyright 1995, Gaussian, Inc.),
 the Gaussian 92(TM) system (copyright 1992, Gaussian, Inc.),
 the Gaussian 90(TM) system (copyright 1990, Gaussian, Inc.),
 the Gaussian 88(TM) system (copyright 1988, Gaussian, Inc.),
 the Gaussian 86(TM) system (copyright 1986, Carnegie Mellon
 University), and the Gaussian 82(TM) system (copyright 1983,
 Carnegie Mellon University). Gaussian is a federally registered
 trademark of Gaussian, Inc.
  
 This software contains proprietary and confidential information,
 including trade secrets, belonging to Gaussian, Inc.
  
 This software is provided under written license and may be
 used, copied, transmitted, or stored only in accord with that
 written license.
  
 The following legend is applicable only to US Government
 contracts under DFARS:
  
                    RESTRICTED RIGHTS LEGEND
  
 Use, duplication or disclosure by the US Government is subject
 to restrictions as set forth in subparagraph (c)(1)(ii) of the
 Rights in Technical Data and Computer Software clause at DFARS
 252.227-7013.
  
 Gaussian, Inc.
 Carnegie Office Park, Building 6, Pittsburgh, PA 15106 USA
  
 The following legend is applicable only to US Government
 contracts under FAR:
  
                    RESTRICTED RIGHTS LEGEND
  
 Use, reproduction and disclosure by the US Government is subject
 to restrictions as set forth in subparagraph (c) of the
 Commercial Computer Software - Restricted Rights clause at FAR
 52.227-19.
  
 Gaussian, Inc.
 Carnegie Office Park, Building 6, Pittsburgh, PA 15106 USA
  
  
 ---------------------------------------------------------------
 Warning -- This program may not be used in any manner that
 competes with the business of Gaussian, Inc. or will provide
 assistance to any competitor of Gaussian, Inc.  The licensee
 of this program is prohibited from giving any competitor of
 Gaussian, Inc. access to this program.  By using this program,
 the user acknowledges that Gaussian, Inc. is engaged in the
 business of creating and licensing software in the field of
 computational chemistry and represents and warrants to the
 licensee that it is not a competitor of Gaussian, Inc. and that
 it will not use this program in any manner prohibited above.
 ---------------------------------------------------------------
  

 Cite this work as:
 Gaussian 03, Revision B.05,
 M. J. Frisch, G. W. Trucks, H. B. Schlegel, G. E. Scuseria, 
 M. A. Robb, J. R. Cheeseman, J. A. Montgomery, Jr., T. Vreven, 
 K. N. Kudin, J. C. Burant, J. M. Millam, S. S. Iyengar, J. Tomasi, 
 V. Barone, B. Mennucci, M. Cossi, G. Scalmani, N. Rega, 
 G. A. Petersson, H. Nakatsuji, M. Hada, M. Ehara, K. Toyota, 
 R. Fukuda, J. Hasegawa, M. Ishida, T. Nakajima, Y. Honda, O. Kitao, 
 H. Nakai, M. Klene, X. Li, J. E. Knox, H. P. Hratchian, J. B. Cross, 
 C. Adamo, J. Jaramillo, R. Gomperts, R. E. Stratmann, O. Yazyev, 
 A. J. Austin, R. Cammi, C. Pomelli, J. W. Ochterski, P. Y. Ayala, 
 K. Morokuma, G. A. Voth, P. Salvador, J. J. Dannenberg, 
 V. G. Zakrzewski, S. Dapprich, A. D. Daniels, M. C. Strain, 
 O. Farkas, D. K. Malick, A. D. Rabuck, K. Raghavachari, 
 J. B. Foresman, J. V. Ortiz, Q. Cui, A. G. Baboul, S. Clifford, 
 J. Cioslowski, B. B. Stefanov, G. Liu, A. Liashenko, P. Piskorz, 
 I. Komaromi, R. L. Martin, D. J. Fox, T. Keith, M. A. Al-Laham, 
 C. Y. Peng, A. Nanayakkara, M. Challacombe, P. M. W. Gill, 
 B. Johnson, W. Chen, M. W. Wong, C. Gonzalez, and J. A. Pople, 
 Gaussian, Inc., Pittsburgh PA, 2003.
 
 *************************************************
 Gaussian 03:  x86_64-Linux-G03RevB.05  8-Nov-2003
                     9-Nov-2007 
 *************************************************
 %nprocshared=2
 Will use up to    2 processors via shared memory.
 %mem=1GB
 ----------------------------------------------------
 #b3lyp/6-31+g* scf=tight nosymm punch=mo iop(3/33=1)
 ----------------------------------------------------
 1/38=1/1;
 2/15=1,17=6,18=5,40=1/2;
 3/5=1,6=6,7=11,11=2,16=1,25=1,30=1,33=1,74=-5/1,2,3;
 4//1;
 5/5=2,32=2,38=5/2;
 6/7=2,8=2,9=2,10=2,28=1/1;
 99/5=1,9=1,10=32/99;
 -------
 9_11_07
 -------
 Symbolic Z-matrix:
 Charge =  0 Multiplicity = 1
 C                     0.67275   0.        5. 
 C                    -0.67275   0.        5. 
 H                     1.24262   0.87843   5.31972 
 H                     1.24262  -0.87843   4.68028 
 H                    -1.24262   0.87843   5.31972 
 H                    -1.24262  -0.87843   4.68028 
 
                          Input orientation:                          
 ---------------------------------------------------------------------
 Center     Atomic     Atomic              Coordinates (Angstroms)
 Number     Number      Type              X           Y           Z
 ---------------------------------------------------------------------
    1          6             0        0.672749    0.000000    5.000000
    2          6             0       -0.672749    0.000000    5.000000
    3          1             0        1.242623    0.878430    5.319722
    4          1             0        1.242623   -0.878430    4.680278
    5          1             0       -1.242623    0.878430    5.319722
    6          1             0       -1.242623   -0.878430    4.680278
 ---------------------------------------------------------------------
                    Distance matrix (angstroms):
                    1          2          3          4          5
     1  C    0.000000
     2  C    1.345498   0.000000
     3  H    1.094814   2.131317   0.000000
     4  H    1.094814   2.131317   1.869611   0.000000
     5  H    2.131317   1.094814   2.485246   3.109967   0.000000
     6  H    2.131317   1.094814   3.109967   2.485246   1.869611
                    6
     6  H    0.000000
 Symmetry turned off by external request.
 Stoichiometry    C2H4
 Framework group  D2H[C2"(C.C),SG(H4)]
 Deg. of freedom     3
 Full point group                 D2H     NOp   8
 Rotational constants (GHZ):    143.4595601     29.5768688     24.5213370
 Standard basis: 6-31+G(d) (6D, 7F)
                         Coordinates in L301:                         
 ---------------------------------------------------------------------
 Center     Atomic     Atomic              Coordinates (Angstroms)
 Number     Number      Type              X           Y           Z
 ---------------------------------------------------------------------
    1          6             0        0.672749    0.000000    5.000000
    2          6             0       -0.672749    0.000000    5.000000
    3          1             0        1.242623    0.878430    5.319722
    4          1             0        1.242623   -0.878430    4.680278
    5          1             0       -1.242623    0.878430    5.319722
    6          1             0       -1.242623   -0.878430    4.680278
 ---------------------------------------------------------------------
 LdAtmC:  AtmChg=     6.000000     6.000000     1.000000     1.000000     1.000000
 LdAtmC:  AtmChg=     1.000000
 AtZEff=  -3.6000000  -3.6000000  -1.0000000  -1.0000000  -1.0000000  -1.0000000
 Integral buffers will be    131072 words long.
 Raffenetti 2 integral format.
 Two-electron integral symmetry is turned off.
    46 basis functions,    80 primitive gaussians,    46 cartesian basis functions
     8 alpha electrons        8 beta electrons
       nuclear repulsion energy        33.0501074751 Hartrees.
 NAtoms=    6 NActive=    6 NUniq=    6 SFac= 1.00D+00 NAtFMM=   60 Big=F
 NPDir=0 NMtPBC=     1 NCelOv=     1 NCel=       1 NClECP=     1 NCelD=      1
         NCelK=      1 NCelE2=     1 NClLst=     1 CellRange=     0.0.
 One-electron integrals computed using PRISM.
 Entering OneElI...
 Calculate overlap and kinetic energy integrals
    NBasis =  46  MinDer = 0  MaxDer = 0
 Requested accuracy = 0.1000D-12
 PrsmSu:  NPrtUS=   1 ThrOK=F
 PRISM was handed   134176257 working-precision words and   171 shell-pairs
 *** Overlap *** 
                1             2             3             4             5
      1  0.100000D+01
      2  0.219059D+00  0.100000D+01
      3  0.000000D+00  0.000000D+00  0.100000D+01
      4  0.000000D+00  0.000000D+00  0.000000D+00  0.100000D+01
      5  0.000000D+00  0.000000D+00  0.000000D+00  0.000000D+00  0.100000D+01
      6  0.184261D+00  0.812273D+00  0.000000D+00  0.000000D+00  0.000000D+00
      7  0.000000D+00  0.000000D+00  0.569754D+00  0.000000D+00  0.000000D+00
      8  0.000000D+00  0.000000D+00  0.000000D+00  0.569754D+00  0.000000D+00
      9  0.000000D+00  0.000000D+00  0.000000D+00  0.000000D+00  0.569754D+00
     10  0.697718D-01  0.402091D+00  0.000000D+00  0.000000D+00  0.000000D+00
     11  0.000000D+00  0.000000D+00  0.164679D+00  0.000000D+00  0.000000D+00
     12  0.000000D+00  0.000000D+00  0.000000D+00  0.164679D+00  0.000000D+00
     13  0.000000D+00  0.000000D+00  0.000000D+00  0.000000D+00  0.164679D+00
     14  0.791027D-01  0.710235D+00  0.000000D+00  0.000000D+00  0.000000D+00
     15  0.791027D-01  0.710235D+00  0.000000D+00  0.000000D+00  0.000000D+00
     16  0.791027D-01  0.710235D+00  0.000000D+00  0.000000D+00  0.000000D+00
     17  0.000000D+00  0.000000D+00  0.000000D+00  0.000000D+00  0.000000D+00
     18  0.000000D+00  0.000000D+00  0.000000D+00  0.000000D+00  0.000000D+00
     19  0.000000D+00  0.000000D+00  0.000000D+00  0.000000D+00  0.000000D+00
     20  0.481399D-05  0.194904D-01 -0.426713D-01  0.000000D+00  0.000000D+00
     21  0.194904D-01  0.203366D+00 -0.282219D+00  0.000000D+00  0.000000D+00
     22  0.426713D-01  0.282219D+00 -0.333594D+00  0.000000D+00  0.000000D+00
     23  0.000000D+00  0.000000D+00  0.000000D+00  0.115814D+00  0.000000D+00
     24  0.000000D+00  0.000000D+00  0.000000D+00  0.000000D+00  0.115814D+00
     25  0.643636D-01  0.359351D+00 -0.253511D+00  0.000000D+00  0.000000D+00
     26  0.129620D+00  0.562375D+00 -0.170740D+00  0.000000D+00  0.000000D+00
     27  0.000000D+00  0.000000D+00  0.000000D+00  0.242739D+00  0.000000D+00
     28  0.000000D+00  0.000000D+00  0.000000D+00  0.000000D+00  0.242739D+00
     29  0.527094D-01  0.309785D+00 -0.673317D-01  0.000000D+00  0.000000D+00
     30  0.555561D-01  0.303665D+00  0.598522D-01  0.000000D+00  0.000000D+00
     31  0.000000D+00  0.000000D+00  0.000000D+00  0.126532D+00  0.000000D+00
     32  0.000000D+00  0.000000D+00  0.000000D+00  0.000000D+00  0.126532D+00
     33  0.526767D-01  0.334402D+00 -0.413876D+00  0.000000D+00  0.000000D+00
     34  0.113280D-02  0.928256D-01 -0.142160D+00  0.000000D+00  0.000000D+00
     35  0.113280D-02  0.928256D-01 -0.142160D+00  0.000000D+00  0.000000D+00
     36  0.000000D+00  0.000000D+00  0.000000D+00  0.183392D+00  0.000000D+00
     37  0.000000D+00  0.000000D+00  0.000000D+00  0.000000D+00  0.183392D+00
     38  0.000000D+00  0.000000D+00  0.000000D+00  0.000000D+00  0.000000D+00
     39  0.320526D-01  0.270665D+00  0.190666D+00  0.293901D+00  0.106971D+00
     40  0.916644D-01  0.473962D+00  0.138280D+00  0.213150D+00  0.775803D-01
     41  0.320526D-01  0.270665D+00  0.190666D+00 -0.293901D+00 -0.106971D+00
     42  0.916644D-01  0.473962D+00  0.138280D+00 -0.213150D+00 -0.775803D-01
     43  0.430533D-04  0.789567D-02 -0.152645D-01  0.700064D-02  0.254802D-02
     44  0.142782D-01  0.109874D+00 -0.102097D+00  0.468236D-01  0.170424D-01
     45  0.430533D-04  0.789567D-02 -0.152645D-01 -0.700064D-02 -0.254802D-02
     46  0.142782D-01  0.109874D+00 -0.102097D+00 -0.468236D-01 -0.170424D-01
                6             7             8             9            10
      6  0.100000D+01
      7  0.000000D+00  0.100000D+01
      8  0.000000D+00  0.000000D+00  0.100000D+01
      9  0.000000D+00  0.000000D+00  0.000000D+00  0.100000D+01
     10  0.727666D+00  0.000000D+00  0.000000D+00  0.000000D+00  0.100000D+01
     11  0.000000D+00  0.588690D+00  0.000000D+00  0.000000D+00  0.000000D+00
     12  0.000000D+00  0.000000D+00  0.588690D+00  0.000000D+00  0.000000D+00
     13  0.000000D+00  0.000000D+00  0.000000D+00  0.588690D+00  0.000000D+00
     14  0.629936D+00  0.000000D+00  0.000000D+00  0.000000D+00  0.323540D+00
     15  0.629936D+00  0.000000D+00  0.000000D+00  0.000000D+00  0.323540D+00
     16  0.629936D+00  0.000000D+00  0.000000D+00  0.000000D+00  0.323540D+00
     17  0.000000D+00  0.000000D+00  0.000000D+00  0.000000D+00  0.000000D+00
     18  0.000000D+00  0.000000D+00  0.000000D+00  0.000000D+00  0.000000D+00
     19  0.000000D+00  0.000000D+00  0.000000D+00  0.000000D+00  0.000000D+00
     20  0.643636D-01 -0.129620D+00  0.000000D+00  0.000000D+00  0.527094D-01
     21  0.359351D+00 -0.562375D+00  0.000000D+00  0.000000D+00  0.309785D+00
     22  0.253511D+00 -0.170740D+00  0.000000D+00  0.000000D+00  0.673317D-01
     23  0.000000D+00  0.000000D+00  0.242739D+00  0.000000D+00  0.000000D+00
     24  0.000000D+00  0.000000D+00  0.000000D+00  0.242739D+00  0.000000D+00
     25  0.579631D+00 -0.605354D+00  0.000000D+00  0.000000D+00  0.581168D+00
     26  0.605354D+00 -0.525884D-01  0.000000D+00  0.000000D+00  0.250193D+00
     27  0.000000D+00  0.000000D+00  0.579631D+00  0.000000D+00  0.000000D+00
     28  0.000000D+00  0.000000D+00  0.000000D+00  0.579631D+00  0.000000D+00
     29  0.581168D+00 -0.250193D+00  0.000000D+00  0.000000D+00  0.867984D+00
     30  0.491037D+00  0.258780D+00  0.000000D+00  0.000000D+00  0.461882D+00
     31  0.000000D+00  0.000000D+00  0.470171D+00  0.000000D+00  0.000000D+00
     32  0.000000D+00  0.000000D+00  0.000000D+00  0.470171D+00  0.000000D+00
     33  0.353148D+00 -0.422973D+00  0.000000D+00  0.000000D+00  0.254635D+00
     34  0.255918D+00 -0.441451D+00  0.000000D+00  0.000000D+00  0.247363D+00
     35  0.255918D+00 -0.441451D+00  0.000000D+00  0.000000D+00  0.247363D+00
     36  0.000000D+00  0.000000D+00  0.161252D+00  0.000000D+00  0.000000D+00
     37  0.000000D+00  0.000000D+00  0.000000D+00  0.161252D+00  0.000000D+00
     38  0.000000D+00  0.000000D+00  0.000000D+00  0.000000D+00  0.000000D+00
     39  0.375116D+00  0.267879D+00  0.412921D+00  0.150291D+00  0.258482D+00
     40  0.702351D+00  0.303675D+00  0.468099D+00  0.170374D+00  0.640357D+00
     41  0.375116D+00  0.267879D+00 -0.412921D+00 -0.150291D+00  0.258482D+00
     42  0.702351D+00  0.303675D+00 -0.468099D+00 -0.170374D+00  0.640357D+00
     43  0.740737D-01 -0.176934D+00  0.811455D-01  0.295345D-01  0.158045D+00
     44  0.262382D+00 -0.381297D+00  0.174871D+00  0.636478D-01  0.424412D+00
     45  0.740737D-01 -0.176934D+00 -0.811455D-01 -0.295345D-01  0.158045D+00
     46  0.262382D+00 -0.381297D+00 -0.174871D+00 -0.636478D-01  0.424412D+00
               11            12            13            14            15
     11  0.100000D+01
     12  0.000000D+00  0.100000D+01
     13  0.000000D+00  0.000000D+00  0.100000D+01
     14  0.000000D+00  0.000000D+00  0.000000D+00  0.100000D+01
     15  0.000000D+00  0.000000D+00  0.000000D+00  0.333333D+00  0.100000D+01
     16  0.000000D+00  0.000000D+00  0.000000D+00  0.333333D+00  0.333333D+00
     17  0.000000D+00  0.000000D+00  0.000000D+00  0.000000D+00  0.000000D+00
     18  0.000000D+00  0.000000D+00  0.000000D+00  0.000000D+00  0.000000D+00
     19  0.000000D+00  0.000000D+00  0.000000D+00  0.000000D+00  0.000000D+00
     20 -0.555561D-01  0.000000D+00  0.000000D+00  0.526767D-01  0.113280D-02
     21 -0.303665D+00  0.000000D+00  0.000000D+00  0.334402D+00  0.928256D-01
     22  0.598522D-01  0.000000D+00  0.000000D+00  0.413876D+00  0.142160D+00
     23  0.000000D+00  0.126532D+00  0.000000D+00  0.000000D+00  0.000000D+00
     24  0.000000D+00  0.000000D+00  0.126532D+00  0.000000D+00  0.000000D+00
     25 -0.491037D+00  0.000000D+00  0.000000D+00  0.353148D+00  0.255918D+00
     26  0.258780D+00  0.000000D+00  0.000000D+00  0.422973D+00  0.441451D+00
     27  0.000000D+00  0.470171D+00  0.000000D+00  0.000000D+00  0.000000D+00
     28  0.000000D+00  0.000000D+00  0.470171D+00  0.000000D+00  0.000000D+00
     29 -0.461882D+00  0.000000D+00  0.000000D+00  0.254635D+00  0.247363D+00
     30  0.622202D+00  0.000000D+00  0.000000D+00  0.229601D+00  0.249594D+00
     31  0.000000D+00  0.867984D+00  0.000000D+00  0.000000D+00  0.000000D+00
     32  0.000000D+00  0.000000D+00  0.867984D+00  0.000000D+00  0.000000D+00
     33 -0.229601D+00  0.000000D+00  0.000000D+00  0.487216D+00  0.154963D+00
     34 -0.249594D+00  0.000000D+00  0.000000D+00  0.154963D+00  0.753228D-01
     35 -0.249594D+00  0.000000D+00  0.000000D+00  0.154963D+00  0.251076D-01
     36  0.000000D+00  0.236690D-01  0.000000D+00  0.000000D+00  0.000000D+00
     37  0.000000D+00  0.000000D+00  0.236690D-01  0.000000D+00  0.000000D+00
     38  0.000000D+00  0.000000D+00  0.000000D+00  0.000000D+00  0.000000D+00
     39  0.109596D+00  0.168936D+00  0.614875D-01  0.207130D+00  0.332500D+00
     40  0.226998D+00  0.349906D+00  0.127355D+00  0.371459D+00  0.401645D+00
     41  0.109596D+00 -0.168936D+00 -0.614875D-01  0.207130D+00  0.332500D+00
     42  0.226998D+00 -0.349906D+00 -0.127355D+00  0.371459D+00  0.401645D+00
     43 -0.225200D+00  0.103281D+00  0.375913D-01  0.137730D-01  0.417458D-02
     44 -0.505665D+00  0.231909D+00  0.844078D-01  0.120267D+00  0.808680D-01
     45 -0.225200D+00 -0.103281D+00 -0.375913D-01  0.137730D-01  0.417458D-02
     46 -0.505665D+00 -0.231909D+00 -0.844078D-01  0.120267D+00  0.808680D-01
               16            17            18            19            20
     16  0.100000D+01
     17  0.000000D+00  0.100000D+01
     18  0.000000D+00  0.000000D+00  0.100000D+01
     19  0.000000D+00  0.000000D+00  0.000000D+00  0.100000D+01
     20  0.113280D-02  0.000000D+00  0.000000D+00  0.000000D+00  0.100000D+01
     21  0.928256D-01  0.000000D+00  0.000000D+00  0.000000D+00  0.219059D+00
     22  0.142160D+00  0.000000D+00  0.000000D+00  0.000000D+00  0.000000D+00
     23  0.000000D+00 -0.183392D+00  0.000000D+00  0.000000D+00  0.000000D+00
     24  0.000000D+00  0.000000D+00 -0.183392D+00  0.000000D+00  0.000000D+00
     25  0.255918D+00  0.000000D+00  0.000000D+00  0.000000D+00  0.184261D+00
     26  0.441451D+00  0.000000D+00  0.000000D+00  0.000000D+00  0.000000D+00
     27  0.000000D+00 -0.161252D+00  0.000000D+00  0.000000D+00  0.000000D+00
     28  0.000000D+00  0.000000D+00 -0.161252D+00  0.000000D+00  0.000000D+00
     29  0.247363D+00  0.000000D+00  0.000000D+00  0.000000D+00  0.697718D-01
     30  0.249594D+00  0.000000D+00  0.000000D+00  0.000000D+00  0.000000D+00
     31  0.000000D+00 -0.236690D-01  0.000000D+00  0.000000D+00  0.000000D+00
     32  0.000000D+00  0.000000D+00 -0.236690D-01  0.000000D+00  0.000000D+00
     33  0.154963D+00  0.000000D+00  0.000000D+00  0.000000D+00  0.791027D-01
     34  0.251076D-01  0.000000D+00  0.000000D+00  0.000000D+00  0.791027D-01
     35  0.753228D-01  0.000000D+00  0.000000D+00  0.000000D+00  0.791027D-01
     36  0.000000D+00 -0.314243D+00  0.000000D+00  0.000000D+00  0.000000D+00
     37  0.000000D+00  0.000000D+00 -0.314243D+00  0.000000D+00  0.000000D+00
     38  0.000000D+00  0.000000D+00  0.000000D+00  0.753228D-01  0.000000D+00
     39  0.144699D+00  0.243247D+00  0.885344D-01  0.136471D+00  0.430533D-04
     40  0.356428D+00  0.585667D-01  0.213165D-01  0.328582D-01  0.142782D-01
     41  0.144699D+00 -0.243247D+00 -0.885344D-01  0.136471D+00  0.430533D-04
     42  0.356428D+00 -0.585667D-01 -0.213165D-01  0.328582D-01  0.142782D-01
     43  0.195666D-02 -0.965540D-02 -0.351427D-02  0.161172D-02  0.320526D-01
     44  0.717639D-01 -0.396332D-01 -0.144253D-01  0.661574D-02  0.916644D-01
     45  0.195666D-02  0.965540D-02  0.351427D-02  0.161172D-02  0.320526D-01
     46  0.717639D-01  0.396332D-01  0.144253D-01  0.661574D-02  0.916644D-01
               21            22            23            24            25
     21  0.100000D+01
     22  0.000000D+00  0.100000D+01
     23  0.000000D+00  0.000000D+00  0.100000D+01
     24  0.000000D+00  0.000000D+00  0.000000D+00  0.100000D+01
     25  0.812273D+00  0.000000D+00  0.000000D+00  0.000000D+00  0.100000D+01
     26  0.000000D+00  0.569754D+00  0.000000D+00  0.000000D+00  0.000000D+00
     27  0.000000D+00  0.000000D+00  0.569754D+00  0.000000D+00  0.000000D+00
     28  0.000000D+00  0.000000D+00  0.000000D+00  0.569754D+00  0.000000D+00
     29  0.402091D+00  0.000000D+00  0.000000D+00  0.000000D+00  0.727666D+00
     30  0.000000D+00  0.164679D+00  0.000000D+00  0.000000D+00  0.000000D+00
     31  0.000000D+00  0.000000D+00  0.164679D+00  0.000000D+00  0.000000D+00
     32  0.000000D+00  0.000000D+00  0.000000D+00  0.164679D+00  0.000000D+00
     33  0.710235D+00  0.000000D+00  0.000000D+00  0.000000D+00  0.629936D+00
     34  0.710235D+00  0.000000D+00  0.000000D+00  0.000000D+00  0.629936D+00
     35  0.710235D+00  0.000000D+00  0.000000D+00  0.000000D+00  0.629936D+00
     36  0.000000D+00  0.000000D+00  0.000000D+00  0.000000D+00  0.000000D+00
     37  0.000000D+00  0.000000D+00  0.000000D+00  0.000000D+00  0.000000D+00
     38  0.000000D+00  0.000000D+00  0.000000D+00  0.000000D+00  0.000000D+00
     39  0.789567D-02  0.152645D-01  0.700064D-02  0.254802D-02  0.740737D-01
     40  0.109874D+00  0.102097D+00  0.468236D-01  0.170424D-01  0.262382D+00
     41  0.789567D-02  0.152645D-01 -0.700064D-02 -0.254802D-02  0.740737D-01
     42  0.109874D+00  0.102097D+00 -0.468236D-01 -0.170424D-01  0.262382D+00
     43  0.270665D+00 -0.190666D+00  0.293901D+00  0.106971D+00  0.375116D+00
     44  0.473962D+00 -0.138280D+00  0.213150D+00  0.775803D-01  0.702351D+00
     45  0.270665D+00 -0.190666D+00 -0.293901D+00 -0.106971D+00  0.375116D+00
     46  0.473962D+00 -0.138280D+00 -0.213150D+00 -0.775803D-01  0.702351D+00
               26            27            28            29            30
     26  0.100000D+01
     27  0.000000D+00  0.100000D+01
     28  0.000000D+00  0.000000D+00  0.100000D+01
     29  0.000000D+00  0.000000D+00  0.000000D+00  0.100000D+01
     30  0.588690D+00  0.000000D+00  0.000000D+00  0.000000D+00  0.100000D+01
     31  0.000000D+00  0.588690D+00  0.000000D+00  0.000000D+00  0.000000D+00
     32  0.000000D+00  0.000000D+00  0.588690D+00  0.000000D+00  0.000000D+00
     33  0.000000D+00  0.000000D+00  0.000000D+00  0.323540D+00  0.000000D+00
     34  0.000000D+00  0.000000D+00  0.000000D+00  0.323540D+00  0.000000D+00
     35  0.000000D+00  0.000000D+00  0.000000D+00  0.323540D+00  0.000000D+00
     36  0.000000D+00  0.000000D+00  0.000000D+00  0.000000D+00  0.000000D+00
     37  0.000000D+00  0.000000D+00  0.000000D+00  0.000000D+00  0.000000D+00
     38  0.000000D+00  0.000000D+00  0.000000D+00  0.000000D+00  0.000000D+00
     39  0.176934D+00  0.811455D-01  0.295345D-01  0.158045D+00  0.225200D+00
     40  0.381297D+00  0.174871D+00  0.636478D-01  0.424412D+00  0.505665D+00
     41  0.176934D+00 -0.811455D-01 -0.295345D-01  0.158045D+00  0.225200D+00
     42  0.381297D+00 -0.174871D+00 -0.636478D-01  0.424412D+00  0.505665D+00
     43 -0.267879D+00  0.412921D+00  0.150291D+00  0.258482D+00 -0.109596D+00
     44 -0.303675D+00  0.468099D+00  0.170374D+00  0.640357D+00 -0.226998D+00
     45 -0.267879D+00 -0.412921D+00 -0.150291D+00  0.258482D+00 -0.109596D+00
     46 -0.303675D+00 -0.468099D+00 -0.170374D+00  0.640357D+00 -0.226998D+00
               31            32            33            34            35
     31  0.100000D+01
     32  0.000000D+00  0.100000D+01
     33  0.000000D+00  0.000000D+00  0.100000D+01
     34  0.000000D+00  0.000000D+00  0.333333D+00  0.100000D+01
     35  0.000000D+00  0.000000D+00  0.333333D+00  0.333333D+00  0.100000D+01
     36  0.000000D+00  0.000000D+00  0.000000D+00  0.000000D+00  0.000000D+00
     37  0.000000D+00  0.000000D+00  0.000000D+00  0.000000D+00  0.000000D+00
     38  0.000000D+00  0.000000D+00  0.000000D+00  0.000000D+00  0.000000D+00
     39  0.103281D+00  0.375913D-01  0.137730D-01  0.417458D-02  0.195666D-02
     40  0.231909D+00  0.844078D-01  0.120267D+00  0.808680D-01  0.717639D-01
     41 -0.103281D+00 -0.375913D-01  0.137730D-01  0.417458D-02  0.195666D-02
     42 -0.231909D+00 -0.844078D-01  0.120267D+00  0.808680D-01  0.717639D-01
     43  0.168936D+00  0.614875D-01  0.207130D+00  0.332500D+00  0.144699D+00
     44  0.349906D+00  0.127355D+00  0.371459D+00  0.401645D+00  0.356428D+00
     45 -0.168936D+00 -0.614875D-01  0.207130D+00  0.332500D+00  0.144699D+00
     46 -0.349906D+00 -0.127355D+00  0.371459D+00  0.401645D+00  0.356428D+00
               36            37            38            39            40
     36  0.100000D+01
     37  0.000000D+00  0.100000D+01
     38  0.000000D+00  0.000000D+00  0.100000D+01
     39  0.965540D-02  0.351427D-02  0.161172D-02  0.100000D+01
     40  0.396332D-01  0.144253D-01  0.661574D-02  0.658292D+00  0.100000D+01
     41 -0.965540D-02 -0.351427D-02  0.161172D-02  0.125799D-01  0.128011D+00
     42 -0.396332D-01 -0.144253D-01  0.661574D-02  0.128011D+00  0.365470D+00
     43 -0.243247D+00 -0.885344D-01  0.136471D+00  0.571644D-03  0.366357D-01
     44 -0.585667D-01 -0.213165D-01  0.328582D-01  0.366357D-01  0.168873D+00
     45  0.243247D+00  0.885344D-01  0.136471D+00  0.104764D-04  0.720596D-02
     46  0.585667D-01  0.213165D-01  0.328582D-01  0.720596D-02  0.617178D-01
               41            42            43            44            45
     41  0.100000D+01
     42  0.658292D+00  0.100000D+01
     43  0.104764D-04  0.720596D-02  0.100000D+01
     44  0.720596D-02  0.617178D-01  0.658292D+00  0.100000D+01
     45  0.571644D-03  0.366357D-01  0.125799D-01  0.128011D+00  0.100000D+01
     46  0.366357D-01  0.168873D+00  0.128011D+00  0.365470D+00  0.658292D+00
               46
     46  0.100000D+01
 *** Kinetic Energy *** 
                1             2             3             4             5
      1  0.162076D+02
      2 -0.124757D+01  0.932246D+00
      3  0.000000D+00  0.000000D+00  0.217833D+01
      4  0.000000D+00  0.000000D+00  0.000000D+00  0.217833D+01
      5  0.000000D+00  0.000000D+00  0.000000D+00  0.000000D+00  0.217833D+01
      6  0.899505D-01  0.306718D+00  0.000000D+00  0.000000D+00  0.000000D+00
      7  0.000000D+00  0.000000D+00  0.376673D+00  0.000000D+00  0.000000D+00
      8  0.000000D+00  0.000000D+00  0.000000D+00  0.376673D+00  0.000000D+00
      9  0.000000D+00  0.000000D+00  0.000000D+00  0.000000D+00  0.376673D+00
     10  0.907972D-02  0.486595D-01  0.000000D+00  0.000000D+00  0.000000D+00
     11  0.000000D+00  0.000000D+00  0.335613D-01  0.000000D+00  0.000000D+00
     12  0.000000D+00  0.000000D+00  0.000000D+00  0.335613D-01  0.000000D+00
     13  0.000000D+00  0.000000D+00  0.000000D+00  0.000000D+00  0.335613D-01
     14 -0.524817D+00  0.520042D+00  0.000000D+00  0.000000D+00  0.000000D+00
     15 -0.524817D+00  0.520042D+00  0.000000D+00  0.000000D+00  0.000000D+00
     16 -0.524817D+00  0.520042D+00  0.000000D+00  0.000000D+00  0.000000D+00
     17  0.000000D+00  0.000000D+00  0.000000D+00  0.000000D+00  0.000000D+00
     18  0.000000D+00  0.000000D+00  0.000000D+00  0.000000D+00  0.000000D+00
     19  0.000000D+00  0.000000D+00  0.000000D+00  0.000000D+00  0.000000D+00
     20 -0.135413D-03 -0.305582D-01  0.301757D-01  0.000000D+00  0.000000D+00
     21 -0.305582D-01 -0.692999D-02 -0.114122D+00  0.000000D+00  0.000000D+00
     22 -0.301757D-01  0.114122D+00 -0.341734D+00  0.000000D+00  0.000000D+00
     23  0.000000D+00  0.000000D+00  0.000000D+00  0.325781D-01  0.000000D+00
     24  0.000000D+00  0.000000D+00  0.000000D+00  0.000000D+00  0.325781D-01
     25  0.938145D-02  0.623760D-01 -0.109871D+00  0.000000D+00  0.000000D+00
     26  0.610677D-01  0.239367D+00 -0.183669D+00  0.000000D+00  0.000000D+00
     27  0.000000D+00  0.000000D+00  0.000000D+00  0.105202D+00  0.000000D+00
     28  0.000000D+00  0.000000D+00  0.000000D+00  0.000000D+00  0.105202D+00
     29  0.557685D-02  0.309754D-01 -0.122746D-01  0.000000D+00  0.000000D+00
     30  0.106981D-01  0.548491D-01  0.547132D-02  0.000000D+00  0.000000D+00
     31  0.000000D+00  0.000000D+00  0.000000D+00  0.230668D-01  0.000000D+00
     32  0.000000D+00  0.000000D+00  0.000000D+00  0.000000D+00  0.230668D-01
     33 -0.759879D-01  0.185459D+00 -0.484409D+00  0.000000D+00  0.000000D+00
     34 -0.120047D-01 -0.702841D-01  0.455959D-01  0.000000D+00  0.000000D+00
     35 -0.120047D-01 -0.702841D-01  0.455959D-01  0.000000D+00  0.000000D+00
     36  0.000000D+00  0.000000D+00  0.000000D+00  0.142615D+00  0.000000D+00
     37  0.000000D+00  0.000000D+00  0.000000D+00  0.000000D+00  0.142615D+00
     38  0.000000D+00  0.000000D+00  0.000000D+00  0.000000D+00  0.000000D+00
     39 -0.348075D-01  0.397962D-01  0.121109D+00  0.186683D+00  0.679468D-01
     40  0.237890D-01  0.113380D+00  0.687449D-01  0.105967D+00  0.385686D-01
     41 -0.348075D-01  0.397962D-01  0.121109D+00 -0.186683D+00 -0.679468D-01
     42  0.237890D-01  0.113380D+00  0.687449D-01 -0.105967D+00 -0.385686D-01
     43 -0.349041D-03 -0.153574D-01  0.222209D-01 -0.101910D-01 -0.370921D-02
     44 -0.456069D-02 -0.130735D-01 -0.113744D-01  0.521654D-02  0.189866D-02
     45 -0.349041D-03 -0.153574D-01  0.222209D-01  0.101910D-01  0.370921D-02
     46 -0.456069D-02 -0.130735D-01 -0.113744D-01 -0.521654D-02 -0.189866D-02
                6             7             8             9            10
      6  0.253072D+00
      7  0.000000D+00  0.421786D+00
      8  0.000000D+00  0.000000D+00  0.421786D+00
      9  0.000000D+00  0.000000D+00  0.000000D+00  0.421786D+00
     10  0.759086D-01  0.000000D+00  0.000000D+00  0.000000D+00  0.657000D-01
     11  0.000000D+00  0.102352D+00  0.000000D+00  0.000000D+00  0.000000D+00
     12  0.000000D+00  0.000000D+00  0.102352D+00  0.000000D+00  0.000000D+00
     13  0.000000D+00  0.000000D+00  0.000000D+00  0.102352D+00  0.000000D+00
     14  0.226288D+00  0.000000D+00  0.000000D+00  0.000000D+00  0.388353D-01
     15  0.226288D+00  0.000000D+00  0.000000D+00  0.000000D+00  0.388353D-01
     16  0.226288D+00  0.000000D+00  0.000000D+00  0.000000D+00  0.388353D-01
     17  0.000000D+00  0.000000D+00  0.000000D+00  0.000000D+00  0.000000D+00
     18  0.000000D+00  0.000000D+00  0.000000D+00  0.000000D+00  0.000000D+00
     19  0.000000D+00  0.000000D+00  0.000000D+00  0.000000D+00  0.000000D+00
     20  0.938145D-02 -0.610677D-01  0.000000D+00  0.000000D+00  0.557685D-02
     21  0.623760D-01 -0.239367D+00  0.000000D+00  0.000000D+00  0.309754D-01
     22  0.109871D+00 -0.183669D+00  0.000000D+00  0.000000D+00  0.122746D-01
     23  0.000000D+00  0.000000D+00  0.105202D+00  0.000000D+00  0.000000D+00
     24  0.000000D+00  0.000000D+00  0.000000D+00  0.105202D+00  0.000000D+00
     25  0.933559D-01 -0.199631D+00  0.000000D+00  0.000000D+00  0.515403D-01
     26  0.199631D+00 -0.124007D+00  0.000000D+00  0.000000D+00  0.395879D-01
     27  0.000000D+00  0.000000D+00  0.191148D+00  0.000000D+00  0.000000D+00
     28  0.000000D+00  0.000000D+00  0.000000D+00  0.191148D+00  0.000000D+00
     29  0.515403D-01 -0.395879D-01  0.000000D+00  0.000000D+00  0.516439D-01
     30  0.776965D-01  0.262452D-01  0.000000D+00  0.000000D+00  0.477118D-01
     31  0.000000D+00  0.000000D+00  0.743949D-01  0.000000D+00  0.000000D+00
     32  0.000000D+00  0.000000D+00  0.000000D+00  0.743949D-01  0.000000D+00
     33  0.981193D-01 -0.204141D+00  0.000000D+00  0.000000D+00  0.261278D-01
     34  0.276945D-01 -0.170788D+00  0.000000D+00  0.000000D+00  0.241761D-01
     35  0.276945D-01 -0.170788D+00  0.000000D+00  0.000000D+00  0.241761D-01
     36  0.000000D+00  0.000000D+00  0.116796D+00  0.000000D+00  0.000000D+00
     37  0.000000D+00  0.000000D+00  0.000000D+00  0.116796D+00  0.000000D+00
     38  0.000000D+00  0.000000D+00  0.000000D+00  0.000000D+00  0.000000D+00
     39  0.934993D-01  0.140040D+00  0.215864D+00  0.785679D-01  0.281911D-01
     40  0.132860D+00  0.107524D+00  0.165743D+00  0.603254D-01  0.596677D-01
     41  0.934993D-01  0.140040D+00 -0.215864D+00 -0.785679D-01  0.281911D-01
     42  0.132860D+00  0.107524D+00 -0.165743D+00 -0.603254D-01  0.596677D-01
     43 -0.141416D-01 -0.138973D-01  0.637358D-02  0.231979D-02  0.108285D-01
     44  0.702832D-02 -0.730943D-01  0.335226D-01  0.122012D-01  0.275201D-01
     45 -0.141416D-01 -0.138973D-01 -0.637358D-02 -0.231979D-02  0.108285D-01
     46  0.702832D-02 -0.730943D-01 -0.335226D-01 -0.122012D-01  0.275201D-01
               11            12            13            14            15
     11  0.109500D+00
     12  0.000000D+00  0.109500D+00
     13  0.000000D+00  0.000000D+00  0.109500D+00
     14  0.000000D+00  0.000000D+00  0.000000D+00  0.173333D+01
     15  0.000000D+00  0.000000D+00  0.000000D+00 -0.133333D+00  0.173333D+01
     16  0.000000D+00  0.000000D+00  0.000000D+00 -0.133333D+00 -0.133333D+00
     17  0.000000D+00  0.000000D+00  0.000000D+00  0.000000D+00  0.000000D+00
     18  0.000000D+00  0.000000D+00  0.000000D+00  0.000000D+00  0.000000D+00
     19  0.000000D+00  0.000000D+00  0.000000D+00  0.000000D+00  0.000000D+00
     20 -0.106981D-01  0.000000D+00  0.000000D+00 -0.759879D-01 -0.120047D-01
     21 -0.548491D-01  0.000000D+00  0.000000D+00  0.185459D+00 -0.702841D-01
     22  0.547132D-02  0.000000D+00  0.000000D+00  0.484409D+00 -0.455959D-01
     23  0.000000D+00  0.230668D-01  0.000000D+00  0.000000D+00  0.000000D+00
     24  0.000000D+00  0.000000D+00  0.230668D-01  0.000000D+00  0.000000D+00
     25 -0.776965D-01  0.000000D+00  0.000000D+00  0.981193D-01  0.276945D-01
     26  0.262452D-01  0.000000D+00  0.000000D+00  0.204141D+00  0.170788D+00
     27  0.000000D+00  0.743949D-01  0.000000D+00  0.000000D+00  0.000000D+00
     28  0.000000D+00  0.000000D+00  0.743949D-01  0.000000D+00  0.000000D+00
     29 -0.477118D-01  0.000000D+00  0.000000D+00  0.261278D-01  0.241761D-01
     30  0.535074D-01  0.000000D+00  0.000000D+00  0.403672D-01  0.451237D-01
     31  0.000000D+00  0.896616D-01  0.000000D+00  0.000000D+00  0.000000D+00
     32  0.000000D+00  0.000000D+00  0.896616D-01  0.000000D+00  0.000000D+00
     33 -0.403672D-01  0.000000D+00  0.000000D+00  0.727180D+00 -0.709162D-01
     34 -0.451237D-01  0.000000D+00  0.000000D+00 -0.709162D-01 -0.252666D-01
     35 -0.451237D-01  0.000000D+00  0.000000D+00 -0.709162D-01 -0.619851D-01
     36  0.000000D+00  0.635248D-02  0.000000D+00  0.000000D+00  0.000000D+00
     37  0.000000D+00  0.000000D+00  0.635248D-02  0.000000D+00  0.000000D+00
     38  0.000000D+00  0.000000D+00  0.000000D+00  0.000000D+00  0.000000D+00
     39  0.209881D-01  0.323520D-01  0.117751D-01  0.366392D-01  0.203935D+00
     40  0.367895D-01  0.567091D-01  0.206404D-01  0.851470D-01  0.108852D+00
     41  0.209881D-01 -0.323520D-01 -0.117751D-01  0.366392D-01  0.203935D+00
     42  0.367895D-01 -0.567091D-01 -0.206404D-01  0.851470D-01  0.108852D+00
     43 -0.339886D-01  0.155879D-01  0.567352D-02 -0.261711D-01 -0.101268D-01
     44 -0.676243D-01  0.310139D-01  0.112881D-01  0.111358D-02 -0.128762D-01
     45 -0.339886D-01 -0.155879D-01 -0.567352D-02 -0.261711D-01 -0.101268D-01
     46 -0.676243D-01 -0.310139D-01 -0.112881D-01  0.111358D-02 -0.128762D-01
               16            17            18            19            20
     16  0.173333D+01
     17  0.000000D+00  0.280000D+01
     18  0.000000D+00  0.000000D+00  0.280000D+01
     19  0.000000D+00  0.000000D+00  0.000000D+00  0.280000D+01
     20 -0.120047D-01  0.000000D+00  0.000000D+00  0.000000D+00  0.162076D+02
     21 -0.702841D-01  0.000000D+00  0.000000D+00  0.000000D+00 -0.124757D+01
     22 -0.455959D-01  0.000000D+00  0.000000D+00  0.000000D+00  0.000000D+00
     23  0.000000D+00 -0.142615D+00  0.000000D+00  0.000000D+00  0.000000D+00
     24  0.000000D+00  0.000000D+00 -0.142615D+00  0.000000D+00  0.000000D+00
     25  0.276945D-01  0.000000D+00  0.000000D+00  0.000000D+00  0.899505D-01
     26  0.170788D+00  0.000000D+00  0.000000D+00  0.000000D+00  0.000000D+00
     27  0.000000D+00 -0.116796D+00  0.000000D+00  0.000000D+00  0.000000D+00
     28  0.000000D+00  0.000000D+00 -0.116796D+00  0.000000D+00  0.000000D+00
     29  0.241761D-01  0.000000D+00  0.000000D+00  0.000000D+00  0.907972D-02
     30  0.451237D-01  0.000000D+00  0.000000D+00  0.000000D+00  0.000000D+00
     31  0.000000D+00 -0.635248D-02  0.000000D+00  0.000000D+00  0.000000D+00
     32  0.000000D+00  0.000000D+00 -0.635248D-02  0.000000D+00  0.000000D+00
     33 -0.709162D-01  0.000000D+00  0.000000D+00  0.000000D+00 -0.524817D+00
     34 -0.619851D-01  0.000000D+00  0.000000D+00  0.000000D+00 -0.524817D+00
     35 -0.252666D-01  0.000000D+00  0.000000D+00  0.000000D+00 -0.524817D+00
     36  0.000000D+00 -0.541434D+00  0.000000D+00  0.000000D+00  0.000000D+00
     37  0.000000D+00  0.000000D+00 -0.541434D+00  0.000000D+00  0.000000D+00
     38  0.000000D+00  0.000000D+00  0.000000D+00  0.550777D-01  0.000000D+00
     39 -0.466688D-01  0.324591D+00  0.118141D+00  0.182109D+00 -0.349041D-03
     40  0.733426D-01  0.459934D-01  0.167402D-01  0.258041D-01 -0.456069D-02
     41 -0.466688D-01 -0.324591D+00 -0.118141D+00  0.182109D+00 -0.349041D-03
     42  0.733426D-01 -0.459934D-01 -0.167402D-01  0.258041D-01 -0.456069D-02
     43 -0.641948D-02  0.161395D-01  0.587428D-02 -0.269407D-02 -0.348075D-01
     44 -0.161088D-01 -0.140728D-01 -0.512208D-02  0.234909D-02  0.237890D-01
     45 -0.641948D-02 -0.161395D-01 -0.587428D-02 -0.269407D-02 -0.348075D-01
     46 -0.161088D-01  0.140728D-01  0.512208D-02  0.234909D-02  0.237890D-01
               21            22            23            24            25
     21  0.932246D+00
     22  0.000000D+00  0.217833D+01
     23  0.000000D+00  0.000000D+00  0.217833D+01
     24  0.000000D+00  0.000000D+00  0.000000D+00  0.217833D+01
     25  0.306718D+00  0.000000D+00  0.000000D+00  0.000000D+00  0.253072D+00
     26  0.000000D+00  0.376673D+00  0.000000D+00  0.000000D+00  0.000000D+00
     27  0.000000D+00  0.000000D+00  0.376673D+00  0.000000D+00  0.000000D+00
     28  0.000000D+00  0.000000D+00  0.000000D+00  0.376673D+00  0.000000D+00
     29  0.486595D-01  0.000000D+00  0.000000D+00  0.000000D+00  0.759086D-01
     30  0.000000D+00  0.335613D-01  0.000000D+00  0.000000D+00  0.000000D+00
     31  0.000000D+00  0.000000D+00  0.335613D-01  0.000000D+00  0.000000D+00
     32  0.000000D+00  0.000000D+00  0.000000D+00  0.335613D-01  0.000000D+00
     33  0.520042D+00  0.000000D+00  0.000000D+00  0.000000D+00  0.226288D+00
     34  0.520042D+00  0.000000D+00  0.000000D+00  0.000000D+00  0.226288D+00
     35  0.520042D+00  0.000000D+00  0.000000D+00  0.000000D+00  0.226288D+00
     36  0.000000D+00  0.000000D+00  0.000000D+00  0.000000D+00  0.000000D+00
     37  0.000000D+00  0.000000D+00  0.000000D+00  0.000000D+00  0.000000D+00
     38  0.000000D+00  0.000000D+00  0.000000D+00  0.000000D+00  0.000000D+00
     39 -0.153574D-01 -0.222209D-01 -0.101910D-01 -0.370921D-02 -0.141416D-01
     40 -0.130735D-01  0.113744D-01  0.521654D-02  0.189866D-02  0.702832D-02
     41 -0.153574D-01 -0.222209D-01  0.101910D-01  0.370921D-02 -0.141416D-01
     42 -0.130735D-01  0.113744D-01 -0.521654D-02 -0.189866D-02  0.702832D-02
     43  0.397962D-01 -0.121109D+00  0.186683D+00  0.679468D-01  0.934993D-01
     44  0.113380D+00 -0.687449D-01  0.105967D+00  0.385686D-01  0.132860D+00
     45  0.397962D-01 -0.121109D+00 -0.186683D+00 -0.679468D-01  0.934993D-01
     46  0.113380D+00 -0.687449D-01 -0.105967D+00 -0.385686D-01  0.132860D+00
               26            27            28            29            30
     26  0.421786D+00
     27  0.000000D+00  0.421786D+00
     28  0.000000D+00  0.000000D+00  0.421786D+00
     29  0.000000D+00  0.000000D+00  0.000000D+00  0.657000D-01
     30  0.102352D+00  0.000000D+00  0.000000D+00  0.000000D+00  0.109500D+00
     31  0.000000D+00  0.102352D+00  0.000000D+00  0.000000D+00  0.000000D+00
     32  0.000000D+00  0.000000D+00  0.102352D+00  0.000000D+00  0.000000D+00
     33  0.000000D+00  0.000000D+00  0.000000D+00  0.388353D-01  0.000000D+00
     34  0.000000D+00  0.000000D+00  0.000000D+00  0.388353D-01  0.000000D+00
     35  0.000000D+00  0.000000D+00  0.000000D+00  0.388353D-01  0.000000D+00
     36  0.000000D+00  0.000000D+00  0.000000D+00  0.000000D+00  0.000000D+00
     37  0.000000D+00  0.000000D+00  0.000000D+00  0.000000D+00  0.000000D+00
     38  0.000000D+00  0.000000D+00  0.000000D+00  0.000000D+00  0.000000D+00
     39  0.138973D-01  0.637358D-02  0.231979D-02  0.108285D-01  0.339886D-01
     40  0.730943D-01  0.335226D-01  0.122012D-01  0.275201D-01  0.676243D-01
     41  0.138973D-01 -0.637358D-02 -0.231979D-02  0.108285D-01  0.339886D-01
     42  0.730943D-01 -0.335226D-01 -0.122012D-01  0.275201D-01  0.676243D-01
     43 -0.140040D+00  0.215864D+00  0.785679D-01  0.281911D-01 -0.209881D-01
     44 -0.107524D+00  0.165743D+00  0.603254D-01  0.596677D-01 -0.367895D-01
     45 -0.140040D+00 -0.215864D+00 -0.785679D-01  0.281911D-01 -0.209881D-01
     46 -0.107524D+00 -0.165743D+00 -0.603254D-01  0.596677D-01 -0.367895D-01
               31            32            33            34            35
     31  0.109500D+00
     32  0.000000D+00  0.109500D+00
     33  0.000000D+00  0.000000D+00  0.173333D+01
     34  0.000000D+00  0.000000D+00 -0.133333D+00  0.173333D+01
     35  0.000000D+00  0.000000D+00 -0.133333D+00 -0.133333D+00  0.173333D+01
     36  0.000000D+00  0.000000D+00  0.000000D+00  0.000000D+00  0.000000D+00
     37  0.000000D+00  0.000000D+00  0.000000D+00  0.000000D+00  0.000000D+00
     38  0.000000D+00  0.000000D+00  0.000000D+00  0.000000D+00  0.000000D+00
     39  0.155879D-01  0.567352D-02 -0.261711D-01 -0.101268D-01 -0.641948D-02
     40  0.310139D-01  0.112881D-01  0.111358D-02 -0.128762D-01 -0.161088D-01
     41 -0.155879D-01 -0.567352D-02 -0.261711D-01 -0.101268D-01 -0.641948D-02
     42 -0.310139D-01 -0.112881D-01  0.111358D-02 -0.128762D-01 -0.161088D-01
     43  0.323520D-01  0.117751D-01  0.366392D-01  0.203935D+00 -0.466688D-01
     44  0.567091D-01  0.206404D-01  0.851470D-01  0.108852D+00  0.733426D-01
     45 -0.323520D-01 -0.117751D-01  0.366392D-01  0.203935D+00 -0.466688D-01
     46 -0.567091D-01 -0.206404D-01  0.851470D-01  0.108852D+00  0.733426D-01
               36            37            38            39            40
     36  0.280000D+01
     37  0.000000D+00  0.280000D+01
     38  0.000000D+00  0.000000D+00  0.280000D+01
     39 -0.161395D-01 -0.587428D-02 -0.269407D-02  0.139568D+01
     40  0.140728D-01  0.512208D-02  0.234909D-02  0.259735D+00  0.241917D+00
     41  0.161395D-01  0.587428D-02 -0.269407D-02 -0.215318D-01 -0.462454D-02
     42 -0.140728D-01 -0.512208D-02  0.234909D-02 -0.462454D-02  0.290837D-01
     43 -0.324591D+00 -0.118141D+00  0.182109D+00 -0.205251D-02 -0.132355D-01
     44 -0.459934D-01 -0.167402D-01  0.258041D-01 -0.132355D-01 -0.758808D-02
     45  0.324591D+00  0.118141D+00  0.182109D+00 -0.641180D-04 -0.562452D-02
     46  0.459934D-01  0.167402D-01  0.258041D-01 -0.562452D-02 -0.127923D-01
               41            42            43            44            45
     41  0.139568D+01
     42  0.259735D+00  0.241917D+00
     43 -0.641180D-04 -0.562452D-02  0.139568D+01
     44 -0.562452D-02 -0.127923D-01  0.259735D+00  0.241917D+00
     45 -0.205251D-02 -0.132355D-01 -0.215318D-01 -0.462454D-02  0.139568D+01
     46 -0.132355D-01 -0.758808D-02 -0.462454D-02  0.290837D-01  0.259735D+00
               46
     46  0.241917D+00
 Entering OneElI...
 Calculate potential energy integrals
    NBasis =  46  MinDer = 0  MaxDer = 0
 Requested accuracy = 0.1000D-12
 PrsmSu:  NPrtUS=   2 ThrOK=T
 PRISM was handed    67084529 working-precision words and   171 shell-pairs
 PRISM was handed    67084529 working-precision words and   171 shell-pairs
 ***** Potential Energy ***** 
                1             2             3             4             5
      1  0.379758D+02
      2  0.325034D+01  0.954109D+01
      3 -0.754548D-01 -0.547415D+00  0.103022D+02
      4  0.000000D+00  0.000000D+00  0.000000D+00  0.100011D+02
      5  0.000000D+00  0.000000D+00  0.000000D+00  0.506559D-01  0.988031D+01
      6  0.395732D+01  0.722449D+01 -0.552654D+00  0.000000D+00  0.000000D+00
      7 -0.126759D-01 -0.400277D+00  0.477705D+01  0.000000D+00  0.000000D+00
      8  0.000000D+00  0.000000D+00  0.000000D+00  0.446030D+01  0.436865D-01
      9  0.000000D+00  0.000000D+00  0.000000D+00  0.436865D-01  0.435617D+01
     10  0.147551D+01  0.340376D+01 -0.309547D+00  0.000000D+00  0.000000D+00
     11 -0.255468D-02 -0.119276D+00  0.131075D+01  0.000000D+00  0.000000D+00
     12  0.000000D+00  0.000000D+00  0.000000D+00  0.120490D+01  0.131855D-01
     13  0.000000D+00  0.000000D+00  0.000000D+00  0.131855D-01  0.117347D+01
     14  0.113282D+01  0.647992D+01 -0.898759D+00  0.000000D+00  0.000000D+00
     15  0.112514D+01  0.623037D+01 -0.173509D+00  0.000000D+00  0.000000D+00
     16  0.112180D+01  0.612715D+01 -0.218835D+00  0.000000D+00  0.000000D+00
     17  0.000000D+00  0.000000D+00  0.000000D+00 -0.300527D+00  0.329368D-01
     18  0.000000D+00  0.000000D+00  0.000000D+00  0.329368D-01 -0.379033D+00
     19  0.242817D-02  0.750060D-01  0.329368D-01  0.000000D+00  0.000000D+00
     20  0.522031D-04  0.386654D+00 -0.877428D+00  0.000000D+00  0.000000D+00
     21  0.386654D+00  0.199166D+01 -0.281338D+01  0.000000D+00  0.000000D+00
     22  0.877428D+00  0.281338D+01 -0.340456D+01  0.000000D+00  0.000000D+00
     23  0.000000D+00  0.000000D+00  0.000000D+00  0.101654D+01  0.274827D-02
     24  0.000000D+00  0.000000D+00  0.000000D+00  0.274827D-02  0.100999D+01
     25  0.136689D+01  0.330447D+01 -0.247836D+01  0.000000D+00  0.000000D+00
     26  0.278636D+01  0.511865D+01 -0.180210D+01  0.000000D+00  0.000000D+00
     27  0.000000D+00  0.000000D+00  0.000000D+00  0.191609D+01  0.117458D-01
     28  0.000000D+00  0.000000D+00  0.000000D+00  0.117458D-01  0.188809D+01
     29  0.111456D+01  0.266567D+01 -0.785103D+00  0.000000D+00  0.000000D+00
     30  0.117714D+01  0.254173D+01  0.270952D+00  0.000000D+00  0.000000D+00
     31  0.000000D+00  0.000000D+00  0.000000D+00  0.933164D+00  0.897362D-02
     32  0.000000D+00  0.000000D+00  0.000000D+00  0.897362D-02  0.911776D+00
     33  0.104713D+01  0.335754D+01 -0.421660D+01  0.000000D+00  0.000000D+00
     34  0.142420D-01  0.814726D+00 -0.126561D+01  0.000000D+00  0.000000D+00
     35  0.142134D-01  0.809912D+00 -0.125762D+01  0.000000D+00  0.000000D+00
     36  0.000000D+00  0.000000D+00  0.000000D+00  0.163846D+01  0.321442D-02
     37  0.000000D+00  0.000000D+00  0.000000D+00  0.321442D-02  0.163080D+01
     38  0.208208D-04  0.349798D-02 -0.580561D-02  0.000000D+00  0.000000D+00
     39  0.638257D+00  0.217119D+01  0.142182D+01  0.227563D+01  0.828262D+00
     40  0.194661D+01  0.400504D+01  0.800305D+00  0.161622D+01  0.588254D+00
     41  0.638257D+00  0.217119D+01  0.142182D+01 -0.227563D+01 -0.828262D+00
     42  0.194661D+01  0.400504D+01  0.800305D+00 -0.161622D+01 -0.588254D+00
     43  0.655155D-03  0.713886D-01 -0.140069D+00  0.544271D-01  0.198098D-01
     44  0.297634D+00  0.991751D+00 -0.963411D+00  0.361507D+00  0.131578D+00
     45  0.655155D-03  0.713886D-01 -0.140069D+00 -0.544271D-01 -0.198098D-01
     46  0.297634D+00  0.991751D+00 -0.963411D+00 -0.361507D+00 -0.131578D+00
                6             7             8             9            10
      6  0.758242D+01
      7 -0.834042D+00  0.660462D+01
      8  0.000000D+00  0.000000D+00  0.581441D+01
      9  0.000000D+00  0.000000D+00  0.745110D-01  0.563681D+01
     10  0.475783D+01 -0.752131D+00  0.000000D+00  0.000000D+00  0.472988D+01
     11 -0.383225D+00  0.329621D+01  0.000000D+00  0.000000D+00 -0.585647D+00
     12  0.000000D+00  0.000000D+00  0.288172D+01  0.338726D-01  0.000000D+00
     13  0.000000D+00  0.000000D+00  0.338726D-01  0.280099D+01  0.000000D+00
     14  0.542661D+01 -0.781272D+00  0.000000D+00  0.000000D+00  0.270085D+01
     15  0.513215D+01 -0.123394D+00  0.000000D+00  0.000000D+00  0.252938D+01
     16  0.502205D+01 -0.166759D+00  0.000000D+00  0.000000D+00  0.246908D+01
     17  0.000000D+00  0.000000D+00 -0.213725D+00  0.315127D-01  0.000000D+00
     18  0.000000D+00  0.000000D+00  0.315127D-01 -0.288836D+00  0.000000D+00
     19  0.800132D-01  0.315127D-01  0.000000D+00  0.000000D+00  0.438197D-01
     20  0.136689D+01 -0.278636D+01  0.000000D+00  0.000000D+00  0.111456D+01
     21  0.330447D+01 -0.511865D+01  0.000000D+00  0.000000D+00  0.266567D+01
     22  0.247836D+01 -0.180210D+01  0.000000D+00  0.000000D+00  0.785103D+00
     23  0.000000D+00  0.000000D+00  0.191609D+01  0.117458D-01  0.000000D+00
     24  0.000000D+00  0.000000D+00  0.117458D-01  0.188809D+01  0.000000D+00
     25  0.462658D+01 -0.483190D+01  0.000000D+00  0.000000D+00  0.393010D+01
     26  0.483190D+01 -0.791981D+00  0.000000D+00  0.000000D+00  0.204894D+01
     27  0.000000D+00  0.000000D+00  0.348820D+01  0.319234D-01  0.000000D+00
     28  0.000000D+00  0.000000D+00  0.319234D-01  0.341211D+01  0.000000D+00
     29  0.393010D+01 -0.204894D+01  0.000000D+00  0.000000D+00  0.424426D+01
     30  0.313869D+01  0.105859D+01  0.000000D+00  0.000000D+00  0.225851D+01
     31  0.000000D+00  0.000000D+00  0.235365D+01  0.255290D-01  0.000000D+00
     32  0.000000D+00  0.000000D+00  0.255290D-01  0.229280D+01  0.000000D+00
     33  0.336089D+01 -0.384177D+01  0.000000D+00  0.000000D+00  0.221838D+01
     34  0.210898D+01 -0.363720D+01  0.000000D+00  0.000000D+00  0.194617D+01
     35  0.208012D+01 -0.357522D+01  0.000000D+00  0.000000D+00  0.190512D+01
     36  0.000000D+00  0.000000D+00  0.133013D+01 -0.124154D-02  0.000000D+00
     37  0.000000D+00  0.000000D+00 -0.124154D-02  0.133309D+01  0.000000D+00
     38  0.209687D-01 -0.450401D-01  0.000000D+00  0.000000D+00  0.298340D-01
     39  0.258655D+01  0.162733D+01  0.259171D+01  0.943306D+00  0.161802D+01
     40  0.472949D+01  0.126362D+01  0.252026D+01  0.917298D+00  0.346404D+01
     41  0.258655D+01  0.162733D+01 -0.259171D+01 -0.943306D+00  0.161802D+01
     42  0.472949D+01  0.126362D+01 -0.252026D+01 -0.917298D+00  0.346404D+01
     43  0.547348D+00 -0.128160D+01  0.530486D+00  0.193081D+00  0.101390D+01
     44  0.195009D+01 -0.276773D+01  0.100474D+01  0.365695D+00  0.243420D+01
     45  0.547348D+00 -0.128160D+01 -0.530486D+00 -0.193081D+00  0.101390D+01
     46  0.195009D+01 -0.276773D+01 -0.100474D+01 -0.365695D+00  0.243420D+01
               11            12            13            14            15
     11  0.374321D+01
     12  0.000000D+00  0.337454D+01
     13  0.000000D+00  0.269509D-01  0.331031D+01
     14 -0.236087D+00  0.000000D+00  0.000000D+00  0.887461D+01
     15 -0.356230D-01  0.000000D+00  0.000000D+00  0.284247D+01  0.828223D+01
     16 -0.483506D-01  0.000000D+00  0.000000D+00  0.279163D+01  0.272127D+01
     17  0.000000D+00 -0.617008D-01  0.924891D-02  0.000000D+00  0.000000D+00
     18  0.000000D+00  0.924891D-02 -0.837457D-01  0.000000D+00  0.000000D+00
     19  0.924891D-02  0.000000D+00  0.000000D+00  0.369426D-01  0.985503D-01
     20 -0.117714D+01  0.000000D+00  0.000000D+00  0.104713D+01  0.142420D-01
     21 -0.254173D+01  0.000000D+00  0.000000D+00  0.335754D+01  0.814726D+00
     22  0.270952D+00  0.000000D+00  0.000000D+00  0.421660D+01  0.126561D+01
     23  0.000000D+00  0.933164D+00  0.897362D-02  0.000000D+00  0.000000D+00
     24  0.000000D+00  0.897362D-02  0.911776D+00  0.000000D+00  0.000000D+00
     25 -0.313869D+01  0.000000D+00  0.000000D+00  0.336089D+01  0.210898D+01
     26  0.105859D+01  0.000000D+00  0.000000D+00  0.384177D+01  0.363720D+01
     27  0.000000D+00  0.235365D+01  0.255290D-01  0.000000D+00  0.000000D+00
     28  0.000000D+00  0.255290D-01  0.229280D+01  0.000000D+00  0.000000D+00
     29 -0.225851D+01  0.000000D+00  0.000000D+00  0.221838D+01  0.194617D+01
     30  0.203658D+01  0.000000D+00  0.000000D+00  0.183978D+01  0.194448D+01
     31  0.000000D+00  0.299409D+01  0.240618D-01  0.000000D+00  0.000000D+00
     32  0.000000D+00  0.240618D-01  0.293674D+01  0.000000D+00  0.000000D+00
     33 -0.183978D+01  0.000000D+00  0.000000D+00  0.488618D+01  0.141638D+01
     34 -0.194448D+01  0.000000D+00  0.000000D+00  0.141638D+01  0.613642D+00
     35 -0.189386D+01  0.000000D+00  0.000000D+00  0.140939D+01  0.203610D+00
     36  0.000000D+00  0.219549D+00 -0.503321D-02  0.000000D+00  0.000000D+00
     37  0.000000D+00 -0.503321D-02  0.231546D+00  0.000000D+00  0.000000D+00
     38 -0.367845D-01  0.000000D+00  0.000000D+00  0.507555D-02  0.213579D-02
     39  0.606426D+00  0.964218D+00  0.350946D+00  0.155326D+01  0.253817D+01
     40  0.790796D+00  0.150289D+01  0.547008D+00  0.296063D+01  0.314653D+01
     41  0.606426D+00 -0.964218D+00 -0.350946D+00  0.155326D+01  0.253817D+01
     42  0.790796D+00 -0.150289D+01 -0.547008D+00  0.296063D+01  0.314653D+01
     43 -0.140107D+01  0.600111D+00  0.218422D+00  0.135129D+00  0.323907D-01
     44 -0.267289D+01  0.103732D+01  0.377552D+00  0.114867D+01  0.647444D+00
     45 -0.140107D+01 -0.600111D+00 -0.218422D+00  0.135129D+00  0.323907D-01
     46 -0.267289D+01 -0.103732D+01 -0.377552D+00  0.114867D+01  0.647444D+00
               16            17            18            19            20
     16  0.805987D+01
     17  0.000000D+00  0.852740D+01
     18  0.000000D+00  0.639864D-01  0.837489D+01
     19  0.630293D-01  0.000000D+00  0.000000D+00  0.816382D+01
     20  0.142134D-01  0.000000D+00  0.000000D+00  0.208208D-04  0.379758D+02
     21  0.809912D+00  0.000000D+00  0.000000D+00  0.349798D-02  0.325034D+01
     22  0.125762D+01  0.000000D+00  0.000000D+00  0.580561D-02  0.754548D-01
     23  0.000000D+00 -0.163846D+01 -0.321442D-02  0.000000D+00  0.000000D+00
     24  0.000000D+00 -0.321442D-02 -0.163080D+01  0.000000D+00  0.000000D+00
     25  0.208012D+01  0.000000D+00  0.000000D+00  0.209687D-01  0.395732D+01
     26  0.357522D+01  0.000000D+00  0.000000D+00  0.450401D-01  0.126759D-01
     27  0.000000D+00 -0.133013D+01  0.124154D-02  0.000000D+00  0.000000D+00
     28  0.000000D+00  0.124154D-02 -0.133309D+01  0.000000D+00  0.000000D+00
     29  0.190512D+01  0.000000D+00  0.000000D+00  0.298340D-01  0.147551D+01
     30  0.189386D+01  0.000000D+00  0.000000D+00  0.367845D-01  0.255468D-02
     31  0.000000D+00 -0.219549D+00  0.503321D-02  0.000000D+00  0.000000D+00
     32  0.000000D+00  0.503321D-02 -0.231546D+00  0.000000D+00  0.000000D+00
     33  0.140939D+01  0.000000D+00  0.000000D+00  0.507555D-02  0.113282D+01
     34  0.203610D+00  0.000000D+00  0.000000D+00  0.213579D-02  0.112514D+01
     35  0.608124D+00  0.000000D+00  0.000000D+00  0.187428D-02  0.112180D+01
     36  0.000000D+00 -0.280031D+01 -0.458339D-02  0.000000D+00  0.000000D+00
     37  0.000000D+00 -0.458339D-02 -0.278938D+01  0.000000D+00  0.000000D+00
     38  0.187428D-02  0.000000D+00  0.000000D+00  0.610830D+00  0.242817D-02
     39  0.110878D+01  0.178086D+01  0.648181D+00  0.103871D+01  0.655155D-03
     40  0.275386D+01  0.358496D+00  0.130482D+00  0.285342D+00  0.297634D+00
     41  0.110878D+01 -0.178086D+01 -0.648181D+00  0.103871D+01  0.655155D-03
     42  0.275386D+01 -0.358496D+00 -0.130482D+00  0.285342D+00  0.297634D+00
     43  0.157293D-01 -0.798054D-01 -0.290468D-01  0.121075D-01  0.638257D+00
     44  0.575455D+00 -0.320057D+00 -0.116491D+00  0.523136D-01  0.194661D+01
     45  0.157293D-01  0.798054D-01  0.290468D-01  0.121075D-01  0.638257D+00
     46  0.575455D+00  0.320057D+00  0.116491D+00  0.523136D-01  0.194661D+01
               21            22            23            24            25
     21  0.954109D+01
     22  0.547415D+00  0.103022D+02
     23  0.000000D+00  0.000000D+00  0.100011D+02
     24  0.000000D+00  0.000000D+00  0.506559D-01  0.988031D+01
     25  0.722449D+01  0.552654D+00  0.000000D+00  0.000000D+00  0.758242D+01
     26  0.400277D+00  0.477705D+01  0.000000D+00  0.000000D+00  0.834042D+00
     27  0.000000D+00  0.000000D+00  0.446030D+01  0.436865D-01  0.000000D+00
     28  0.000000D+00  0.000000D+00  0.436865D-01  0.435617D+01  0.000000D+00
     29  0.340376D+01  0.309547D+00  0.000000D+00  0.000000D+00  0.475783D+01
     30  0.119276D+00  0.131075D+01  0.000000D+00  0.000000D+00  0.383225D+00
     31  0.000000D+00  0.000000D+00  0.120490D+01  0.131855D-01  0.000000D+00
     32  0.000000D+00  0.000000D+00  0.131855D-01  0.117347D+01  0.000000D+00
     33  0.647992D+01  0.898759D+00  0.000000D+00  0.000000D+00  0.542661D+01
     34  0.623037D+01  0.173509D+00  0.000000D+00  0.000000D+00  0.513215D+01
     35  0.612715D+01  0.218835D+00  0.000000D+00  0.000000D+00  0.502205D+01
     36  0.000000D+00  0.000000D+00  0.300527D+00 -0.329368D-01  0.000000D+00
     37  0.000000D+00  0.000000D+00 -0.329368D-01  0.379033D+00  0.000000D+00
     38  0.750060D-01 -0.329368D-01  0.000000D+00  0.000000D+00  0.800132D-01
     39  0.713886D-01  0.140069D+00  0.544271D-01  0.198098D-01  0.547348D+00
     40  0.991751D+00  0.963411D+00  0.361507D+00  0.131578D+00  0.195009D+01
     41  0.713886D-01  0.140069D+00 -0.544271D-01 -0.198098D-01  0.547348D+00
     42  0.991751D+00  0.963411D+00 -0.361507D+00 -0.131578D+00  0.195009D+01
     43  0.217119D+01 -0.142182D+01  0.227563D+01  0.828262D+00  0.258655D+01
     44  0.400504D+01 -0.800305D+00  0.161622D+01  0.588254D+00  0.472949D+01
     45  0.217119D+01 -0.142182D+01 -0.227563D+01 -0.828262D+00  0.258655D+01
     46  0.400504D+01 -0.800305D+00 -0.161622D+01 -0.588254D+00  0.472949D+01
               26            27            28            29            30
     26  0.660462D+01
     27  0.000000D+00  0.581441D+01
     28  0.000000D+00  0.745110D-01  0.563681D+01
     29  0.752131D+00  0.000000D+00  0.000000D+00  0.472988D+01
     30  0.329621D+01  0.000000D+00  0.000000D+00  0.585647D+00  0.374321D+01
     31  0.000000D+00  0.288172D+01  0.338726D-01  0.000000D+00  0.000000D+00
     32  0.000000D+00  0.338726D-01  0.280099D+01  0.000000D+00  0.000000D+00
     33  0.781272D+00  0.000000D+00  0.000000D+00  0.270085D+01  0.236087D+00
     34  0.123394D+00  0.000000D+00  0.000000D+00  0.252938D+01  0.356230D-01
     35  0.166759D+00  0.000000D+00  0.000000D+00  0.246908D+01  0.483506D-01
     36  0.000000D+00  0.213725D+00 -0.315127D-01  0.000000D+00  0.000000D+00
     37  0.000000D+00 -0.315127D-01  0.288836D+00  0.000000D+00  0.000000D+00
     38 -0.315127D-01  0.000000D+00  0.000000D+00  0.438197D-01 -0.924891D-02
     39  0.128160D+01  0.530486D+00  0.193081D+00  0.101390D+01  0.140107D+01
     40  0.276773D+01  0.100474D+01  0.365695D+00  0.243420D+01  0.267289D+01
     41  0.128160D+01 -0.530486D+00 -0.193081D+00  0.101390D+01  0.140107D+01
     42  0.276773D+01 -0.100474D+01 -0.365695D+00  0.243420D+01  0.267289D+01
     43 -0.162733D+01  0.259171D+01  0.943306D+00  0.161802D+01 -0.606426D+00
     44 -0.126362D+01  0.252026D+01  0.917298D+00  0.346404D+01 -0.790796D+00
     45 -0.162733D+01 -0.259171D+01 -0.943306D+00  0.161802D+01 -0.606426D+00
     46 -0.126362D+01 -0.252026D+01 -0.917298D+00  0.346404D+01 -0.790796D+00
               31            32            33            34            35
     31  0.337454D+01
     32  0.269509D-01  0.331031D+01
     33  0.000000D+00  0.000000D+00  0.887461D+01
     34  0.000000D+00  0.000000D+00  0.284247D+01  0.828223D+01
     35  0.000000D+00  0.000000D+00  0.279163D+01  0.272127D+01  0.805987D+01
     36  0.617008D-01 -0.924891D-02  0.000000D+00  0.000000D+00  0.000000D+00
     37 -0.924891D-02  0.837457D-01  0.000000D+00  0.000000D+00  0.000000D+00
     38  0.000000D+00  0.000000D+00  0.369426D-01  0.985503D-01  0.630293D-01
     39  0.600111D+00  0.218422D+00  0.135129D+00  0.323907D-01  0.157293D-01
     40  0.103732D+01  0.377552D+00  0.114867D+01  0.647444D+00  0.575455D+00
     41 -0.600111D+00 -0.218422D+00  0.135129D+00  0.323907D-01  0.157293D-01
     42 -0.103732D+01 -0.377552D+00  0.114867D+01  0.647444D+00  0.575455D+00
     43  0.964218D+00  0.350946D+00  0.155326D+01  0.253817D+01  0.110878D+01
     44  0.150289D+01  0.547008D+00  0.296063D+01  0.314653D+01  0.275386D+01
     45 -0.964218D+00 -0.350946D+00  0.155326D+01  0.253817D+01  0.110878D+01
     46 -0.150289D+01 -0.547008D+00  0.296063D+01  0.314653D+01  0.275386D+01
               36            37            38            39            40
     36  0.852740D+01
     37  0.639864D-01  0.837489D+01
     38  0.000000D+00  0.000000D+00  0.816382D+01
     39  0.798054D-01  0.290468D-01  0.121075D-01  0.670738D+01
     40  0.320057D+00  0.116491D+00  0.523136D-01  0.405566D+01  0.541359D+01
     41 -0.798054D-01 -0.290468D-01  0.121075D-01  0.103928D+00  0.897563D+00
     42 -0.320057D+00 -0.116491D+00  0.523136D-01  0.897563D+00  0.234661D+01
     43 -0.178086D+01 -0.648181D+00  0.103871D+01  0.390719D-02  0.247620D+00
     44 -0.358496D+00 -0.130482D+00  0.285342D+00  0.247620D+00  0.107106D+01
     45  0.178086D+01  0.648181D+00  0.103871D+01  0.108998D-03  0.592827D-01
     46  0.358496D+00  0.130482D+00  0.285342D+00  0.592827D-01  0.486071D+00
               41            42            43            44            45
     41  0.670738D+01
     42  0.405566D+01  0.541359D+01
     43  0.108998D-03  0.592827D-01  0.670738D+01
     44  0.592827D-01  0.486071D+00  0.405566D+01  0.541359D+01
     45  0.390719D-02  0.247620D+00  0.103928D+00  0.897563D+00  0.670738D+01
     46  0.247620D+00  0.107106D+01  0.897563D+00  0.234661D+01  0.405566D+01
               46
     46  0.541359D+01
 ****** Core Hamiltonian ****** 
                1             2             3             4             5
      1 -0.217682D+02
      2 -0.449791D+01 -0.860884D+01
      3  0.754548D-01  0.547415D+00 -0.812384D+01
      4  0.000000D+00  0.000000D+00  0.000000D+00 -0.782272D+01
      5  0.000000D+00  0.000000D+00  0.000000D+00 -0.506559D-01 -0.770198D+01
      6 -0.386737D+01 -0.691777D+01  0.552654D+00  0.000000D+00  0.000000D+00
      7  0.126759D-01  0.400277D+00 -0.440038D+01  0.000000D+00  0.000000D+00
      8  0.000000D+00  0.000000D+00  0.000000D+00 -0.408363D+01 -0.436865D-01
      9  0.000000D+00  0.000000D+00  0.000000D+00 -0.436865D-01 -0.397950D+01
     10 -0.146643D+01 -0.335510D+01  0.309547D+00  0.000000D+00  0.000000D+00
     11  0.255468D-02  0.119276D+00 -0.127719D+01  0.000000D+00  0.000000D+00
     12  0.000000D+00  0.000000D+00  0.000000D+00 -0.117134D+01 -0.131855D-01
     13  0.000000D+00  0.000000D+00  0.000000D+00 -0.131855D-01 -0.113991D+01
     14 -0.165764D+01 -0.595988D+01  0.898759D+00  0.000000D+00  0.000000D+00
     15 -0.164996D+01 -0.571033D+01  0.173509D+00  0.000000D+00  0.000000D+00
     16 -0.164662D+01 -0.560711D+01  0.218835D+00  0.000000D+00  0.000000D+00
     17  0.000000D+00  0.000000D+00  0.000000D+00  0.300527D+00 -0.329368D-01
     18  0.000000D+00  0.000000D+00  0.000000D+00 -0.329368D-01  0.379033D+00
     19 -0.242817D-02 -0.750060D-01 -0.329368D-01  0.000000D+00  0.000000D+00
     20 -0.187616D-03 -0.417212D+00  0.907603D+00  0.000000D+00  0.000000D+00
     21 -0.417212D+00 -0.199859D+01  0.269926D+01  0.000000D+00  0.000000D+00
     22 -0.907603D+00 -0.269926D+01  0.306283D+01  0.000000D+00  0.000000D+00
     23  0.000000D+00  0.000000D+00  0.000000D+00 -0.983959D+00 -0.274827D-02
     24  0.000000D+00  0.000000D+00  0.000000D+00 -0.274827D-02 -0.977408D+00
     25 -0.135751D+01 -0.324209D+01  0.236849D+01  0.000000D+00  0.000000D+00
     26 -0.272529D+01 -0.487928D+01  0.161843D+01  0.000000D+00  0.000000D+00
     27  0.000000D+00  0.000000D+00  0.000000D+00 -0.181089D+01 -0.117458D-01
     28  0.000000D+00  0.000000D+00  0.000000D+00 -0.117458D-01 -0.178289D+01
     29 -0.110898D+01 -0.263469D+01  0.772828D+00  0.000000D+00  0.000000D+00
     30 -0.116644D+01 -0.248688D+01 -0.265481D+00  0.000000D+00  0.000000D+00
     31  0.000000D+00  0.000000D+00  0.000000D+00 -0.910097D+00 -0.897362D-02
     32  0.000000D+00  0.000000D+00  0.000000D+00 -0.897362D-02 -0.888709D+00
     33 -0.112312D+01 -0.317208D+01  0.373219D+01  0.000000D+00  0.000000D+00
     34 -0.262468D-01 -0.885010D+00  0.131120D+01  0.000000D+00  0.000000D+00
     35 -0.262181D-01 -0.880196D+00  0.130321D+01  0.000000D+00  0.000000D+00
     36  0.000000D+00  0.000000D+00  0.000000D+00 -0.149584D+01 -0.321442D-02
     37  0.000000D+00  0.000000D+00  0.000000D+00 -0.321442D-02 -0.148818D+01
     38 -0.208208D-04 -0.349798D-02  0.580561D-02  0.000000D+00  0.000000D+00
     39 -0.673064D+00 -0.213140D+01 -0.130071D+01 -0.208895D+01 -0.760315D+00
     40 -0.192282D+01 -0.389165D+01 -0.731560D+00 -0.151025D+01 -0.549686D+00
     41 -0.673064D+00 -0.213140D+01 -0.130071D+01  0.208895D+01  0.760315D+00
     42 -0.192282D+01 -0.389165D+01 -0.731560D+00  0.151025D+01  0.549686D+00
     43 -0.100420D-02 -0.867461D-01  0.162290D+00 -0.646181D-01 -0.235190D-01
     44 -0.302195D+00 -0.100482D+01  0.952037D+00 -0.356291D+00 -0.129679D+00
     45 -0.100420D-02 -0.867461D-01  0.162290D+00  0.646181D-01  0.235190D-01
     46 -0.302195D+00 -0.100482D+01  0.952037D+00  0.356291D+00  0.129679D+00
                6             7             8             9            10
      6 -0.732935D+01
      7  0.834042D+00 -0.618283D+01
      8  0.000000D+00  0.000000D+00 -0.539262D+01
      9  0.000000D+00  0.000000D+00 -0.745110D-01 -0.521502D+01
     10 -0.468192D+01  0.752131D+00  0.000000D+00  0.000000D+00 -0.466418D+01
     11  0.383225D+00 -0.319386D+01  0.000000D+00  0.000000D+00  0.585647D+00
     12  0.000000D+00  0.000000D+00 -0.277937D+01 -0.338726D-01  0.000000D+00
     13  0.000000D+00  0.000000D+00 -0.338726D-01 -0.269864D+01  0.000000D+00
     14 -0.520032D+01  0.781272D+00  0.000000D+00  0.000000D+00 -0.266202D+01
     15 -0.490587D+01  0.123394D+00  0.000000D+00  0.000000D+00 -0.249055D+01
     16 -0.479576D+01  0.166759D+00  0.000000D+00  0.000000D+00 -0.243024D+01
     17  0.000000D+00  0.000000D+00  0.213725D+00 -0.315127D-01  0.000000D+00
     18  0.000000D+00  0.000000D+00 -0.315127D-01  0.288836D+00  0.000000D+00
     19 -0.800132D-01 -0.315127D-01  0.000000D+00  0.000000D+00 -0.438197D-01
     20 -0.135751D+01  0.272529D+01  0.000000D+00  0.000000D+00 -0.110898D+01
     21 -0.324209D+01  0.487928D+01  0.000000D+00  0.000000D+00 -0.263469D+01
     22 -0.236849D+01  0.161843D+01  0.000000D+00  0.000000D+00 -0.772828D+00
     23  0.000000D+00  0.000000D+00 -0.181089D+01 -0.117458D-01  0.000000D+00
     24  0.000000D+00  0.000000D+00 -0.117458D-01 -0.178289D+01  0.000000D+00
     25 -0.453322D+01  0.463227D+01  0.000000D+00  0.000000D+00 -0.387856D+01
     26 -0.463227D+01  0.667974D+00  0.000000D+00  0.000000D+00 -0.200935D+01
     27  0.000000D+00  0.000000D+00 -0.329705D+01 -0.319234D-01  0.000000D+00
     28  0.000000D+00  0.000000D+00 -0.319234D-01 -0.322096D+01  0.000000D+00
     29 -0.387856D+01  0.200935D+01  0.000000D+00  0.000000D+00 -0.419262D+01
     30 -0.306100D+01 -0.103234D+01  0.000000D+00  0.000000D+00 -0.221079D+01
     31  0.000000D+00  0.000000D+00 -0.227926D+01 -0.255290D-01  0.000000D+00
     32  0.000000D+00  0.000000D+00 -0.255290D-01 -0.221841D+01  0.000000D+00
     33 -0.326277D+01  0.363763D+01  0.000000D+00  0.000000D+00 -0.219225D+01
     34 -0.208128D+01  0.346641D+01  0.000000D+00  0.000000D+00 -0.192200D+01
     35 -0.205243D+01  0.340443D+01  0.000000D+00  0.000000D+00 -0.188094D+01
     36  0.000000D+00  0.000000D+00 -0.121333D+01  0.124154D-02  0.000000D+00
     37  0.000000D+00  0.000000D+00  0.124154D-02 -0.121629D+01  0.000000D+00
     38 -0.209687D-01  0.450401D-01  0.000000D+00  0.000000D+00 -0.298340D-01
     39 -0.249305D+01 -0.148729D+01 -0.237585D+01 -0.864738D+00 -0.158983D+01
     40 -0.459663D+01 -0.115610D+01 -0.235451D+01 -0.856972D+00 -0.340437D+01
     41 -0.249305D+01 -0.148729D+01  0.237585D+01  0.864738D+00 -0.158983D+01
     42 -0.459663D+01 -0.115610D+01  0.235451D+01  0.856972D+00 -0.340437D+01
     43 -0.561489D+00  0.126771D+01 -0.524113D+00 -0.190761D+00 -0.100307D+01
     44 -0.194306D+01  0.269463D+01 -0.971218D+00 -0.353494D+00 -0.240668D+01
     45 -0.561489D+00  0.126771D+01  0.524113D+00  0.190761D+00 -0.100307D+01
     46 -0.194306D+01  0.269463D+01  0.971218D+00  0.353494D+00 -0.240668D+01
               11            12            13            14            15
     11 -0.363371D+01
     12  0.000000D+00 -0.326504D+01
     13  0.000000D+00 -0.269509D-01 -0.320081D+01
     14  0.236087D+00  0.000000D+00  0.000000D+00 -0.714127D+01
     15  0.356230D-01  0.000000D+00  0.000000D+00 -0.297580D+01 -0.654889D+01
     16  0.483506D-01  0.000000D+00  0.000000D+00 -0.292496D+01 -0.285461D+01
     17  0.000000D+00  0.617008D-01 -0.924891D-02  0.000000D+00  0.000000D+00
     18  0.000000D+00 -0.924891D-02  0.837457D-01  0.000000D+00  0.000000D+00
     19 -0.924891D-02  0.000000D+00  0.000000D+00 -0.369426D-01 -0.985503D-01
     20  0.116644D+01  0.000000D+00  0.000000D+00 -0.112312D+01 -0.262468D-01
     21  0.248688D+01  0.000000D+00  0.000000D+00 -0.317208D+01 -0.885010D+00
     22 -0.265481D+00  0.000000D+00  0.000000D+00 -0.373219D+01 -0.131120D+01
     23  0.000000D+00 -0.910097D+00 -0.897362D-02  0.000000D+00  0.000000D+00
     24  0.000000D+00 -0.897362D-02 -0.888709D+00  0.000000D+00  0.000000D+00
     25  0.306100D+01  0.000000D+00  0.000000D+00 -0.326277D+01 -0.208128D+01
     26 -0.103234D+01  0.000000D+00  0.000000D+00 -0.363763D+01 -0.346641D+01
     27  0.000000D+00 -0.227926D+01 -0.255290D-01  0.000000D+00  0.000000D+00
     28  0.000000D+00 -0.255290D-01 -0.221841D+01  0.000000D+00  0.000000D+00
     29  0.221079D+01  0.000000D+00  0.000000D+00 -0.219225D+01 -0.192200D+01
     30 -0.198307D+01  0.000000D+00  0.000000D+00 -0.179941D+01 -0.189936D+01
     31  0.000000D+00 -0.290443D+01 -0.240618D-01  0.000000D+00  0.000000D+00
     32  0.000000D+00 -0.240618D-01 -0.284707D+01  0.000000D+00  0.000000D+00
     33  0.179941D+01  0.000000D+00  0.000000D+00 -0.415900D+01 -0.148729D+01
     34  0.189936D+01  0.000000D+00  0.000000D+00 -0.148729D+01 -0.638909D+00
     35  0.184874D+01  0.000000D+00  0.000000D+00 -0.148031D+01 -0.265595D+00
     36  0.000000D+00 -0.213197D+00  0.503321D-02  0.000000D+00  0.000000D+00
     37  0.000000D+00  0.503321D-02 -0.225193D+00  0.000000D+00  0.000000D+00
     38  0.367845D-01  0.000000D+00  0.000000D+00 -0.507555D-02 -0.213579D-02
     39 -0.585438D+00 -0.931866D+00 -0.339171D+00 -0.151662D+01 -0.233424D+01
     40 -0.754006D+00 -0.144619D+01 -0.526368D+00 -0.287549D+01 -0.303767D+01
     41 -0.585438D+00  0.931866D+00  0.339171D+00 -0.151662D+01 -0.233424D+01
     42 -0.754006D+00  0.144619D+01  0.526368D+00 -0.287549D+01 -0.303767D+01
     43  0.136708D+01 -0.584523D+00 -0.212749D+00 -0.161300D+00 -0.425175D-01
     44  0.260527D+01 -0.100630D+01 -0.366263D+00 -0.114756D+01 -0.660321D+00
     45  0.136708D+01  0.584523D+00  0.212749D+00 -0.161300D+00 -0.425175D-01
     46  0.260527D+01  0.100630D+01  0.366263D+00 -0.114756D+01 -0.660321D+00
               16            17            18            19            20
     16 -0.632654D+01
     17  0.000000D+00 -0.572740D+01
     18  0.000000D+00 -0.639864D-01 -0.557489D+01
     19 -0.630293D-01  0.000000D+00  0.000000D+00 -0.536382D+01
     20 -0.262181D-01  0.000000D+00  0.000000D+00 -0.208208D-04 -0.217682D+02
     21 -0.880196D+00  0.000000D+00  0.000000D+00 -0.349798D-02 -0.449791D+01
     22 -0.130321D+01  0.000000D+00  0.000000D+00 -0.580561D-02 -0.754548D-01
     23  0.000000D+00  0.149584D+01  0.321442D-02  0.000000D+00  0.000000D+00
     24  0.000000D+00  0.321442D-02  0.148818D+01  0.000000D+00  0.000000D+00
     25 -0.205243D+01  0.000000D+00  0.000000D+00 -0.209687D-01 -0.386737D+01
     26 -0.340443D+01  0.000000D+00  0.000000D+00 -0.450401D-01 -0.126759D-01
     27  0.000000D+00  0.121333D+01 -0.124154D-02  0.000000D+00  0.000000D+00
     28  0.000000D+00 -0.124154D-02  0.121629D+01  0.000000D+00  0.000000D+00
     29 -0.188094D+01  0.000000D+00  0.000000D+00 -0.298340D-01 -0.146643D+01
     30 -0.184874D+01  0.000000D+00  0.000000D+00 -0.367845D-01 -0.255468D-02
     31  0.000000D+00  0.213197D+00 -0.503321D-02  0.000000D+00  0.000000D+00
     32  0.000000D+00 -0.503321D-02  0.225193D+00  0.000000D+00  0.000000D+00
     33 -0.148031D+01  0.000000D+00  0.000000D+00 -0.507555D-02 -0.165764D+01
     34 -0.265595D+00  0.000000D+00  0.000000D+00 -0.213579D-02 -0.164996D+01
     35 -0.633391D+00  0.000000D+00  0.000000D+00 -0.187428D-02 -0.164662D+01
     36  0.000000D+00  0.225887D+01  0.458339D-02  0.000000D+00  0.000000D+00
     37  0.000000D+00  0.458339D-02  0.224795D+01  0.000000D+00  0.000000D+00
     38 -0.187428D-02  0.000000D+00  0.000000D+00 -0.555752D+00 -0.242817D-02
     39 -0.115545D+01 -0.145627D+01 -0.530040D+00 -0.856599D+00 -0.100420D-02
     40 -0.268052D+01 -0.312502D+00 -0.113741D+00 -0.259537D+00 -0.302195D+00
     41 -0.115545D+01  0.145627D+01  0.530040D+00 -0.856599D+00 -0.100420D-02
     42 -0.268052D+01  0.312502D+00  0.113741D+00 -0.259537D+00 -0.302195D+00
     43 -0.221488D-01  0.959449D-01  0.349210D-01 -0.148016D-01 -0.673064D+00
     44 -0.591563D+00  0.305984D+00  0.111369D+00 -0.499645D-01 -0.192282D+01
     45 -0.221488D-01 -0.959449D-01 -0.349210D-01 -0.148016D-01 -0.673064D+00
     46 -0.591563D+00 -0.305984D+00 -0.111369D+00 -0.499645D-01 -0.192282D+01
               21            22            23            24            25
     21 -0.860884D+01
     22 -0.547415D+00 -0.812384D+01
     23  0.000000D+00  0.000000D+00 -0.782272D+01
     24  0.000000D+00  0.000000D+00 -0.506559D-01 -0.770198D+01
     25 -0.691777D+01 -0.552654D+00  0.000000D+00  0.000000D+00 -0.732935D+01
     26 -0.400277D+00 -0.440038D+01  0.000000D+00  0.000000D+00 -0.834042D+00
     27  0.000000D+00  0.000000D+00 -0.408363D+01 -0.436865D-01  0.000000D+00
     28  0.000000D+00  0.000000D+00 -0.436865D-01 -0.397950D+01  0.000000D+00
     29 -0.335510D+01 -0.309547D+00  0.000000D+00  0.000000D+00 -0.468192D+01
     30 -0.119276D+00 -0.127719D+01  0.000000D+00  0.000000D+00 -0.383225D+00
     31  0.000000D+00  0.000000D+00 -0.117134D+01 -0.131855D-01  0.000000D+00
     32  0.000000D+00  0.000000D+00 -0.131855D-01 -0.113991D+01  0.000000D+00
     33 -0.595988D+01 -0.898759D+00  0.000000D+00  0.000000D+00 -0.520032D+01
     34 -0.571033D+01 -0.173509D+00  0.000000D+00  0.000000D+00 -0.490587D+01
     35 -0.560711D+01 -0.218835D+00  0.000000D+00  0.000000D+00 -0.479576D+01
     36  0.000000D+00  0.000000D+00 -0.300527D+00  0.329368D-01  0.000000D+00
     37  0.000000D+00  0.000000D+00  0.329368D-01 -0.379033D+00  0.000000D+00
     38 -0.750060D-01  0.329368D-01  0.000000D+00  0.000000D+00 -0.800132D-01
     39 -0.867461D-01 -0.162290D+00 -0.646181D-01 -0.235190D-01 -0.561489D+00
     40 -0.100482D+01 -0.952037D+00 -0.356291D+00 -0.129679D+00 -0.194306D+01
     41 -0.867461D-01 -0.162290D+00  0.646181D-01  0.235190D-01 -0.561489D+00
     42 -0.100482D+01 -0.952037D+00  0.356291D+00  0.129679D+00 -0.194306D+01
     43 -0.213140D+01  0.130071D+01 -0.208895D+01 -0.760315D+00 -0.249305D+01
     44 -0.389165D+01  0.731560D+00 -0.151025D+01 -0.549686D+00 -0.459663D+01
     45 -0.213140D+01  0.130071D+01  0.208895D+01  0.760315D+00 -0.249305D+01
     46 -0.389165D+01  0.731560D+00  0.151025D+01  0.549686D+00 -0.459663D+01
               26            27            28            29            30
     26 -0.618283D+01
     27  0.000000D+00 -0.539262D+01
     28  0.000000D+00 -0.745110D-01 -0.521502D+01
     29 -0.752131D+00  0.000000D+00  0.000000D+00 -0.466418D+01
     30 -0.319386D+01  0.000000D+00  0.000000D+00 -0.585647D+00 -0.363371D+01
     31  0.000000D+00 -0.277937D+01 -0.338726D-01  0.000000D+00  0.000000D+00
     32  0.000000D+00 -0.338726D-01 -0.269864D+01  0.000000D+00  0.000000D+00
     33 -0.781272D+00  0.000000D+00  0.000000D+00 -0.266202D+01 -0.236087D+00
     34 -0.123394D+00  0.000000D+00  0.000000D+00 -0.249055D+01 -0.356230D-01
     35 -0.166759D+00  0.000000D+00  0.000000D+00 -0.243024D+01 -0.483506D-01
     36  0.000000D+00 -0.213725D+00  0.315127D-01  0.000000D+00  0.000000D+00
     37  0.000000D+00  0.315127D-01 -0.288836D+00  0.000000D+00  0.000000D+00
     38  0.315127D-01  0.000000D+00  0.000000D+00 -0.438197D-01  0.924891D-02
     39 -0.126771D+01 -0.524113D+00 -0.190761D+00 -0.100307D+01 -0.136708D+01
     40 -0.269463D+01 -0.971218D+00 -0.353494D+00 -0.240668D+01 -0.260527D+01
     41 -0.126771D+01  0.524113D+00  0.190761D+00 -0.100307D+01 -0.136708D+01
     42 -0.269463D+01  0.971218D+00  0.353494D+00 -0.240668D+01 -0.260527D+01
     43  0.148729D+01 -0.237585D+01 -0.864738D+00 -0.158983D+01  0.585438D+00
     44  0.115610D+01 -0.235451D+01 -0.856972D+00 -0.340437D+01  0.754006D+00
     45  0.148729D+01  0.237585D+01  0.864738D+00 -0.158983D+01  0.585438D+00
     46  0.115610D+01  0.235451D+01  0.856972D+00 -0.340437D+01  0.754006D+00
               31            32            33            34            35
     31 -0.326504D+01
     32 -0.269509D-01 -0.320081D+01
     33  0.000000D+00  0.000000D+00 -0.714127D+01
     34  0.000000D+00  0.000000D+00 -0.297580D+01 -0.654889D+01
     35  0.000000D+00  0.000000D+00 -0.292496D+01 -0.285461D+01 -0.632654D+01
     36 -0.617008D-01  0.924891D-02  0.000000D+00  0.000000D+00  0.000000D+00
     37  0.924891D-02 -0.837457D-01  0.000000D+00  0.000000D+00  0.000000D+00
     38  0.000000D+00  0.000000D+00 -0.369426D-01 -0.985503D-01 -0.630293D-01
     39 -0.584523D+00 -0.212749D+00 -0.161300D+00 -0.425175D-01 -0.221488D-01
     40 -0.100630D+01 -0.366263D+00 -0.114756D+01 -0.660321D+00 -0.591563D+00
     41  0.584523D+00  0.212749D+00 -0.161300D+00 -0.425175D-01 -0.221488D-01
     42  0.100630D+01  0.366263D+00 -0.114756D+01 -0.660321D+00 -0.591563D+00
     43 -0.931866D+00 -0.339171D+00 -0.151662D+01 -0.233424D+01 -0.115545D+01
     44 -0.144619D+01 -0.526368D+00 -0.287549D+01 -0.303767D+01 -0.268052D+01
     45  0.931866D+00  0.339171D+00 -0.151662D+01 -0.233424D+01 -0.115545D+01
     46  0.144619D+01  0.526368D+00 -0.287549D+01 -0.303767D+01 -0.268052D+01
               36            37            38            39            40
     36 -0.572740D+01
     37 -0.639864D-01 -0.557489D+01
     38  0.000000D+00  0.000000D+00 -0.536382D+01
     39 -0.959449D-01 -0.349210D-01 -0.148016D-01 -0.531170D+01
     40 -0.305984D+00 -0.111369D+00 -0.499645D-01 -0.379592D+01 -0.517168D+01
     41  0.959449D-01  0.349210D-01 -0.148016D-01 -0.125459D+00 -0.902188D+00
     42  0.305984D+00  0.111369D+00 -0.499645D-01 -0.902188D+00 -0.231753D+01
     43  0.145627D+01  0.530040D+00 -0.856599D+00 -0.595970D-02 -0.260855D+00
     44  0.312502D+00  0.113741D+00 -0.259537D+00 -0.260855D+00 -0.107865D+01
     45 -0.145627D+01 -0.530040D+00 -0.856599D+00 -0.173116D-03 -0.649072D-01
     46 -0.312502D+00 -0.113741D+00 -0.259537D+00 -0.649072D-01 -0.498864D+00
               41            42            43            44            45
     41 -0.531170D+01
     42 -0.379592D+01 -0.517168D+01
     43 -0.173116D-03 -0.649072D-01 -0.531170D+01
     44 -0.649072D-01 -0.498864D+00 -0.379592D+01 -0.517168D+01
     45 -0.595970D-02 -0.260855D+00 -0.125459D+00 -0.902188D+00 -0.531170D+01
     46 -0.260855D+00 -0.107865D+01 -0.902188D+00 -0.231753D+01 -0.379592D+01
               46
     46 -0.517168D+01
 SVDSVc IR=1
 SVDSVc V= 7.30D+00 5.12D+00 4.09D+00 3.11D+00 2.40D+00 2.15D+00 1.51D+00 1.45D+00 1.39D+00 1.23D+00
 SVDSVc V= 1.18D+00 1.17D+00 1.11D+00 1.04D+00 1.04D+00 9.77D-01 9.62D-01 8.61D-01 8.10D-01 7.95D-01
 SVDSVc V= 7.18D-01 6.05D-01 5.78D-01 5.58D-01 4.57D-01 4.52D-01 4.41D-01 3.34D-01 3.31D-01 2.88D-01
[...]
     13  0.000000D+00  0.000000D+00  0.944863D+01
     14  0.000000D+00  0.000000D+00  0.802465D-01  0.944863D+01
     15  0.000000D+00  0.000000D+00  0.802465D-01  0.314954D+01  0.944863D+01
     16  0.000000D+00  0.000000D+00  0.240740D+00  0.314954D+01  0.314954D+01
     17  0.000000D+00  0.000000D+00  0.000000D+00  0.000000D+00  0.000000D+00
     18  0.138991D+00  0.000000D+00  0.000000D+00  0.000000D+00  0.000000D+00
     19  0.000000D+00  0.138991D+00  0.000000D+00  0.000000D+00  0.000000D+00
     20 -0.524929D+00  0.000000D+00  0.242721D-02  0.497722D+00  0.107034D-01
     21 -0.286922D+01  0.000000D+00  0.116857D+00  0.315964D+01  0.877074D+00
     22  0.565521D+00  0.000000D+00  0.223529D-01  0.391056D+01  0.134322D+01
     23  0.000000D+00  0.119555D+01  0.000000D+00  0.000000D+00  0.000000D+00
     24 -0.299370D+00  0.000000D+00  0.119555D+01  0.153788D+00  0.349443D-01
     25 -0.463963D+01  0.000000D+00  0.572335D+00  0.333677D+01  0.241807D+01
     26  0.244511D+01  0.000000D+00  0.246390D+00  0.399652D+01  0.417111D+01
     27  0.000000D+00  0.444248D+01  0.000000D+00  0.000000D+00  0.000000D+00
     28 -0.949078D+00  0.000000D+00  0.444248D+01  0.149740D+00  0.108513D+00
     29 -0.436415D+01  0.000000D+00  0.207369D+01  0.240595D+01  0.233725D+01
     30  0.587896D+01  0.000000D+00  0.110348D+01  0.216942D+01  0.235833D+01
     31  0.000000D+00  0.820126D+01  0.000000D+00  0.000000D+00  0.000000D+00
     32 -0.110348D+01  0.000000D+00  0.820126D+01  0.631562D-01  0.613526D-01
     33 -0.216942D+01  0.000000D+00  0.631562D-01  0.460352D+01  0.146419D+01
     34 -0.235833D+01  0.000000D+00  0.613526D-01  0.146419D+01  0.711697D+00
     35 -0.235833D+01  0.000000D+00  0.184058D+00  0.146419D+01  0.237232D+00
     36  0.000000D+00  0.223640D+00  0.000000D+00  0.000000D+00  0.000000D+00
     37  0.492084D-01  0.000000D+00  0.223640D+00  0.230652D+00  0.552863D-01
     38  0.000000D+00  0.106266D+00  0.000000D+00  0.000000D+00  0.000000D+00
     39  0.109783D+01  0.169224D+01  0.689253D+00  0.201678D+01  0.323975D+01
     40  0.225268D+01  0.347239D+01  0.191734D+01  0.354744D+01  0.383571D+01
     41  0.973228D+00 -0.150018D+01 -0.472691D+00  0.189740D+01  0.304359D+01
     42  0.203697D+01 -0.313987D+01 -0.489327D+00  0.347213D+01  0.375428D+01
     43 -0.225583D+01  0.103457D+01  0.421470D+00  0.133857D+00  0.405701D-01
     44 -0.501811D+01  0.230141D+01  0.127076D+01  0.114855D+01  0.772289D+00
     45 -0.199983D+01 -0.917164D+00 -0.288903D+00  0.126415D+00  0.383180D-01
     46 -0.453758D+01 -0.208103D+01 -0.324313D+00  0.112417D+01  0.755895D+00
               16            17            18            19            20
     16  0.944863D+01
     17  0.000000D+00  0.944863D+01
     18  0.000000D+00  0.000000D+00  0.944863D+01
     19  0.000000D+00  0.000000D+00  0.000000D+00  0.944863D+01
     20  0.107034D-01  0.000000D+00 -0.406730D-02  0.000000D+00  0.944863D+01
     21  0.877074D+00  0.000000D+00 -0.163715D+00  0.000000D+00  0.206981D+01
     22  0.134322D+01  0.000000D+00 -0.199928D+00  0.000000D+00  0.000000D+00
     23  0.000000D+00 -0.173280D+01  0.000000D+00  0.605253D-01  0.000000D+00
     24  0.104833D+00  0.000000D+00 -0.173280D+01  0.000000D+00  0.948317D-01
     25  0.241807D+01  0.000000D+00 -0.196291D+00  0.000000D+00  0.174102D+01
     26  0.417111D+01  0.000000D+00 -0.150646D+00  0.000000D+00  0.000000D+00
     27  0.000000D+00 -0.152361D+01  0.000000D+00  0.187950D+00  0.000000D+00
     28  0.325538D+00  0.000000D+00 -0.152361D+01  0.000000D+00  0.159312D-01
     29  0.233725D+01  0.000000D+00 -0.565474D-01  0.000000D+00  0.659248D+00
     30  0.235833D+01  0.000000D+00  0.492084D-01  0.000000D+00  0.000000D+00
     31  0.000000D+00 -0.223640D+00  0.000000D+00  0.106266D+00  0.000000D+00
     32  0.184058D+00  0.000000D+00 -0.223640D+00  0.000000D+00  0.321073D-02
     33  0.146419D+01  0.000000D+00 -0.230652D+00  0.000000D+00  0.747412D+00
     34  0.237232D+00  0.000000D+00 -0.552863D-01  0.000000D+00  0.747412D+00
     35  0.711697D+00  0.000000D+00 -0.165859D+00  0.000000D+00  0.747412D+00
     36  0.000000D+00 -0.296916D+01  0.000000D+00  0.957588D-01  0.000000D+00
     37  0.165859D+00  0.000000D+00 -0.296916D+01  0.000000D+00  0.000000D+00
     38  0.000000D+00 -0.957588D-01  0.000000D+00  0.711697D+00  0.000000D+00
     39  0.147138D+01  0.237283D+01  0.961800D+00  0.148256D+01  0.410563D-03
     40  0.347475D+01  0.559311D+00  0.312953D+00  0.482400D+00  0.135209D+00
     41  0.126304D+01 -0.222387D+01 -0.711258D+00  0.109637D+01  0.403027D-03
     42  0.326077D+01 -0.547438D+00 -0.898704D-01  0.138530D+00  0.134609D+00
     43  0.198839D-01 -0.938405D-01 -0.386676D-01  0.177338D-01  0.305302D+00
     44  0.699613D+00 -0.378497D+00 -0.211781D+00  0.971274D-01  0.867999D+00
     45  0.170915D-01  0.886201D-01  0.277426D-01  0.127233D-01  0.300404D+00
     46  0.656529D+00  0.370462D+00  0.608171D-01  0.278920D-01  0.864208D+00
               21            22            23            24            25
     21  0.944863D+01
     22  0.000000D+00  0.944863D+01
     23  0.000000D+00  0.000000D+00  0.944863D+01
     24  0.685407D+00  0.000000D+00  0.000000D+00  0.944863D+01
     25  0.767487D+01  0.000000D+00  0.000000D+00  0.693556D+00  0.944863D+01
     26  0.000000D+00  0.538340D+01  0.000000D+00  0.000000D+00  0.000000D+00
     27  0.000000D+00  0.000000D+00  0.538340D+01  0.000000D+00  0.000000D+00
     28  0.502210D+00  0.000000D+00  0.000000D+00  0.538340D+01  0.121729D+01
     29  0.379921D+01  0.000000D+00  0.000000D+00  0.393432D+00  0.687545D+01
     30  0.000000D+00  0.155599D+01  0.000000D+00  0.000000D+00  0.000000D+00
     31  0.000000D+00  0.000000D+00  0.155599D+01  0.000000D+00  0.000000D+00
     32  0.151825D+00  0.000000D+00  0.000000D+00  0.155599D+01  0.716606D+00
     33  0.671075D+01  0.000000D+00  0.000000D+00  0.322914D+00  0.595204D+01
     34  0.671075D+01  0.000000D+00  0.000000D+00  0.322914D+00  0.595204D+01
     35  0.671075D+01  0.000000D+00  0.000000D+00  0.968741D+00  0.595204D+01
     36  0.000000D+00  0.000000D+00  0.000000D+00  0.000000D+00  0.000000D+00
     37  0.000000D+00  0.559303D+00  0.000000D+00  0.000000D+00  0.000000D+00
     38  0.000000D+00  0.000000D+00  0.559303D+00  0.000000D+00  0.000000D+00
     39  0.772092D-01  0.149229D+00  0.684396D-01  0.281528D-01  0.735847D+00
     40  0.105402D+01  0.977934D+00  0.448501D+00  0.250690D+00  0.255663D+01
     41  0.719974D-01  0.139229D+00 -0.638534D-01 -0.199978D-01  0.663943D+00
     42  0.102229D+01  0.951410D+00 -0.436337D+00 -0.713645D-01  0.240168D+01
     43  0.265352D+01 -0.186405D+01  0.287333D+01  0.117129D+01  0.372728D+01
     44  0.454794D+01 -0.132417D+01  0.204114D+01  0.114100D+01  0.684365D+01
     45  0.246130D+01 -0.173901D+01 -0.268059D+01 -0.850166D+00  0.336139D+01
     46  0.440865D+01 -0.128893D+01 -0.198682D+01 -0.325058D+00  0.642886D+01
               26            27            28            29            30
     26  0.944863D+01
     27  0.000000D+00  0.944863D+01
     28  0.000000D+00  0.000000D+00  0.944863D+01
     29  0.000000D+00  0.000000D+00  0.140644D+01  0.944863D+01
     30  0.556232D+01  0.000000D+00  0.000000D+00  0.000000D+00  0.944863D+01
     31  0.000000D+00  0.556232D+01  0.000000D+00  0.000000D+00  0.000000D+00
     32  0.000000D+00  0.000000D+00  0.556232D+01  0.238909D+01  0.000000D+00
     33  0.000000D+00  0.000000D+00  0.267102D+00  0.305701D+01  0.000000D+00
     34  0.000000D+00  0.000000D+00  0.267102D+00  0.305701D+01  0.000000D+00
     35  0.000000D+00  0.000000D+00  0.801306D+00  0.305701D+01  0.000000D+00
     36  0.000000D+00  0.000000D+00  0.000000D+00  0.000000D+00  0.000000D+00
     37  0.462634D+00  0.000000D+00  0.000000D+00  0.000000D+00  0.138991D+00
     38  0.000000D+00  0.462634D+00  0.000000D+00  0.000000D+00  0.000000D+00
     39  0.175788D+01  0.806201D+00  0.328902D+00  0.158312D+01  0.225583D+01
     40  0.371533D+01  0.170393D+01  0.946772D+00  0.421177D+01  0.501811D+01
     41  0.158568D+01 -0.727226D+00 -0.229219D+00  0.140350D+01  0.199983D+01
     42  0.349015D+01 -0.160065D+01 -0.255997D+00  0.380846D+01  0.453758D+01
     43 -0.266218D+01  0.410360D+01  0.166965D+01  0.258920D+01 -0.109783D+01
     44 -0.295898D+01  0.456111D+01  0.253434D+01  0.635476D+01 -0.225268D+01
     45 -0.240000D+01 -0.369948D+01 -0.117044D+01  0.229540D+01 -0.973228D+00
     46 -0.277964D+01 -0.428467D+01 -0.685258D+00  0.574623D+01 -0.203697D+01
               31            32            33            34            35
     31  0.944863D+01
     32  0.000000D+00  0.944863D+01
     33  0.000000D+00  0.802465D-01  0.944863D+01
     34  0.000000D+00  0.802465D-01  0.314954D+01  0.944863D+01
     35  0.000000D+00  0.240740D+00  0.314954D+01  0.314954D+01  0.944863D+01
     36  0.000000D+00  0.000000D+00  0.000000D+00  0.000000D+00  0.000000D+00
     37  0.000000D+00  0.000000D+00  0.000000D+00  0.000000D+00  0.000000D+00
     38  0.138991D+00  0.000000D+00  0.000000D+00  0.000000D+00  0.000000D+00
     39  0.103457D+01  0.421470D+00  0.133857D+00  0.405701D-01  0.198839D-01
     40  0.230141D+01  0.127076D+01  0.114855D+01  0.772289D+00  0.699613D+00
     41 -0.917164D+00 -0.288903D+00  0.126415D+00  0.383180D-01  0.170915D-01
     42 -0.208103D+01 -0.324313D+00  0.112417D+01  0.755895D+00  0.656529D+00
     43  0.169224D+01  0.689253D+00  0.201678D+01  0.323975D+01  0.147138D+01
     44  0.347239D+01  0.191734D+01  0.354744D+01  0.383571D+01  0.347475D+01
     45 -0.150018D+01 -0.472691D+00  0.189740D+01  0.304359D+01  0.126304D+01
     46 -0.313987D+01 -0.489327D+00  0.347213D+01  0.375428D+01  0.326077D+01
               36            37            38            39            40
     36  0.944863D+01
     37  0.000000D+00  0.944863D+01
     38  0.000000D+00  0.000000D+00  0.944863D+01
     39  0.938405D-01  0.386676D-01  0.177338D-01  0.100528D+02
     40  0.378497D+00  0.211781D+00  0.971274D-01  0.661769D+01  0.100528D+02
     41 -0.886201D-01 -0.277426D-01  0.127233D-01  0.118863D+00  0.116134D+01
     42 -0.370462D+00 -0.608171D-01  0.278920D-01  0.125772D+01  0.345319D+01
     43 -0.237283D+01 -0.961800D+00  0.148256D+01  0.574664D-02  0.368292D+00
     44 -0.559311D+00 -0.312953D+00  0.482400D+00  0.368292D+00  0.169764D+01
     45  0.222387D+01  0.711258D+00  0.109637D+01  0.989878D-04  0.654172D-01
     46  0.547438D+00  0.898704D-01  0.138530D+00  0.707556D-01  0.583149D+00
               41            42            43            44            45
     41  0.884444D+01
     42  0.582223D+01  0.884444D+01
     43  0.989878D-04  0.707556D-01  0.100528D+02
     44  0.654172D-01  0.583149D+00  0.661769D+01  0.100528D+02
     45  0.505588D-02  0.324022D+00  0.118863D+00  0.116134D+01  0.884444D+01
     46  0.324022D+00  0.149358D+01  0.125772D+01  0.345319D+01  0.582223D+01
               46
     46  0.884444D+01
 Fermi contact integrals: 
               1            2            3            4            5
      1 0.758902D+01 0.000000D+00 0.000000D+00 0.000000D+00 0.000000D+00
      2-0.673212D-01 0.153063D-01 0.502054D-01 0.502054D-01 0.756429D-04
      3 0.000000D+00-0.373935D-01 0.523279D-01 0.523279D-01-0.262955D-03
      4 0.000000D+00 0.000000D+00 0.806607D-01-0.806607D-01 0.120597D-03
      5 0.000000D+00 0.000000D+00 0.293581D-01-0.293581D-01 0.438936D-04
      6 0.187618D+00 0.630344D-01 0.911268D-01 0.911268D-01 0.121532D-01
      7 0.000000D+00-0.131664D+00 0.806176D-01 0.806176D-01-0.361366D-01
      8 0.000000D+00 0.000000D+00 0.124268D+00-0.124268D+00 0.165730D-01
      9 0.000000D+00 0.000000D+00 0.452297D-01-0.452297D-01 0.603207D-02
     10 0.682363D-01 0.514090D-01 0.565711D-01 0.565711D-01 0.335310D-01
     11 0.000000D+00-0.547127D-01 0.255000D-01 0.255000D-01-0.508002D-01
     12 0.000000D+00 0.000000D+00 0.393068D-01-0.393068D-01 0.232981D-01
     13 0.000000D+00 0.000000D+00 0.143065D-01-0.143065D-01 0.847979D-02
     14 0.000000D+00 0.408539D-01 0.420755D-01 0.420755D-01 0.337411D-04
     15 0.000000D+00 0.000000D+00 0.999737D-01 0.999737D-01 0.709687D-05
     16 0.000000D+00 0.000000D+00 0.132439D-01 0.132439D-01 0.000000D+00
     17 0.000000D+00 0.000000D+00 0.112336D+00-0.112336D+00-0.268024D-04
     18 0.000000D+00 0.000000D+00 0.408868D-01-0.408868D-01-0.975526D-05
     19 0.000000D+00 0.000000D+00 0.630249D-01 0.630249D-01 0.447397D-05
     20 0.000000D+00 0.758902D+01 0.000000D+00 0.000000D+00 0.000000D+00
     21 0.153063D-01-0.673212D-01 0.756429D-04 0.756429D-04 0.502054D-01
     22 0.373935D-01 0.000000D+00 0.262955D-03 0.262955D-03-0.523279D-01
     23 0.000000D+00 0.000000D+00 0.120597D-03-0.120597D-03 0.806607D-01
     24 0.000000D+00 0.000000D+00 0.438936D-04-0.438936D-04 0.293581D-01
     25 0.630344D-01 0.187618D+00 0.121532D-01 0.121532D-01 0.911268D-01
     26 0.131664D+00 0.000000D+00 0.361366D-01 0.361366D-01-0.806176D-01
     27 0.000000D+00 0.000000D+00 0.165730D-01-0.165730D-01 0.124268D+00
     28 0.000000D+00 0.000000D+00 0.603207D-02-0.603207D-02 0.452297D-01
     29 0.514090D-01 0.682363D-01 0.335310D-01 0.335310D-01 0.565711D-01
     30 0.547127D-01 0.000000D+00 0.508002D-01 0.508002D-01-0.255000D-01
     31 0.000000D+00 0.000000D+00 0.232981D-01-0.232981D-01 0.393068D-01
     32 0.000000D+00 0.000000D+00 0.847979D-02-0.847979D-02 0.143065D-01
     33 0.408539D-01 0.000000D+00 0.337411D-04 0.337411D-04 0.420755D-01
     34 0.000000D+00 0.000000D+00 0.709687D-05 0.709687D-05 0.999737D-01
     35 0.000000D+00 0.000000D+00 0.000000D+00 0.000000D+00 0.132439D-01
     36 0.000000D+00 0.000000D+00 0.268024D-04-0.268024D-04-0.112336D+00
     37 0.000000D+00 0.000000D+00 0.975526D-05-0.975526D-05-0.408868D-01
     38 0.000000D+00 0.000000D+00 0.447397D-05 0.447397D-05 0.630249D-01
     39 0.268037D-01 0.128373D-04 0.994558D+00 0.140592D-03 0.000000D+00
     40 0.909467D-01 0.132555D-01 0.181381D+00 0.242267D-01 0.517260D-02
     41 0.268037D-01 0.128373D-04 0.140592D-03 0.994558D+00 0.000000D+00
     42 0.909467D-01 0.132555D-01 0.242267D-01 0.181381D+00 0.690895D-03
     43 0.128373D-04 0.268037D-01 0.000000D+00 0.000000D+00 0.994558D+00
     44 0.132555D-01 0.909467D-01 0.517260D-02 0.690895D-03 0.181381D+00
     45 0.128373D-04 0.268037D-01 0.000000D+00 0.000000D+00 0.140592D-03
     46 0.132555D-01 0.909467D-01 0.690895D-03 0.517260D-02 0.242267D-01
               6
      1 0.000000D+00
      2 0.756429D-04
      3-0.262955D-03
      4-0.120597D-03
      5-0.438936D-04
      6 0.121532D-01
      7-0.361366D-01
      8-0.165730D-01
      9-0.603207D-02
     10 0.335310D-01
     11-0.508002D-01
     12-0.232981D-01
     13-0.847979D-02
     14 0.337411D-04
     15 0.709687D-05
     16 0.000000D+00
     17 0.268024D-04
     18 0.975526D-05
     19 0.447397D-05
     20 0.000000D+00
     21 0.502054D-01
     22-0.523279D-01
     23-0.806607D-01
     24-0.293581D-01
     25 0.911268D-01
     26-0.806176D-01
     27-0.124268D+00
     28-0.452297D-01
     29 0.565711D-01
     30-0.255000D-01
     31-0.393068D-01
     32-0.143065D-01
     33 0.420755D-01
     34 0.999737D-01
     35 0.132439D-01
     36 0.112336D+00
     37 0.408868D-01
     38 0.630249D-01
     39 0.000000D+00
     40 0.690895D-03
     41 0.000000D+00
     42 0.517260D-02
     43 0.140592D-03
     44 0.242267D-01
     45 0.994558D+00
     46 0.181381D+00
 Harris functional with IExCor=  402 diagonalized for initial guess.
 ExpMin= 4.38D-02 ExpMax= 3.05D+03 ExpMxC= 4.57D+02 IAcc=2 IRadAn=         4 AccDes= 0.00D+00
 HarFok:  IExCor= 402 AccDes= 0.00D+00 IRadAn=         4 IDoV=1
 ScaDFX=  1.000000  1.000000  1.000000  1.000000
 Requested convergence on RMS density matrix=1.00D-08 within 128 cycles.
 Requested convergence on MAX density matrix=1.00D-06.
 Requested convergence on             energy=1.00D-06.
 No special actions if energy rises.
 Keep R1 integrals in memory in canonical form, NReq=     1532902.
 SCF Done:  E(RB+HF-LYP) =  -78.5929860184     A.U. after    8 cycles
             Convg  =    0.1488D-08             -V/T =  2.0119
             S**2   =   0.0000

 **********************************************************************

            Population analysis using the SCF density.

 **********************************************************************

 Alpha  occ. eigenvalues --  -10.19871 -10.19790  -0.76206  -0.58448  -0.47268
 Alpha  occ. eigenvalues --   -0.42268  -0.36322  -0.27596
 Alpha virt. eigenvalues --   -0.00987   0.02501   0.03258   0.04671   0.06952
 Alpha virt. eigenvalues --    0.08670   0.08746   0.12754   0.15670   0.17641
 Alpha virt. eigenvalues --    0.19040   0.24306   0.34233   0.34755   0.57994
 Alpha virt. eigenvalues --    0.65785   0.67468   0.71916   0.75677   0.81961
 Alpha virt. eigenvalues --    0.89952   0.93643   0.96324   1.00219   1.16203
 Alpha virt. eigenvalues --    1.21969   1.44779   1.53897   1.81652   1.88523
 Alpha virt. eigenvalues --    1.99937   2.10768   2.29199   2.37010   2.66502
 Alpha virt. eigenvalues --    2.70045   4.11589   4.25146
          Condensed to atoms (all electrons):
              1          2          3          4          5          6
     1  C    5.006737   0.666639   0.382551   0.382551  -0.036195  -0.036195
     2  C    0.666639   5.006737  -0.036195  -0.036195   0.382551   0.382551
     3  H    0.382551  -0.036195   0.506603  -0.033236  -0.006694   0.003928
     4  H    0.382551  -0.036195  -0.033236   0.506603   0.003928  -0.006694
     5  H   -0.036195   0.382551  -0.006694   0.003928   0.506603  -0.033236
     6  H   -0.036195   0.382551   0.003928  -0.006694  -0.033236   0.506603
 Mulliken atomic charges:
              1
     1  C   -0.366088
     2  C   -0.366088
     3  H    0.183044
     4  H    0.183044
     5  H    0.183044
     6  H    0.183044
 Sum of Mulliken charges=   0.00000
 Atomic charges with hydrogens summed into heavy atoms:
              1
     1  C    0.000000
     2  C    0.000000
     3  H    0.000000
     4  H    0.000000
     5  H    0.000000
     6  H    0.000000
 Sum of Mulliken charges=   0.00000
 Electronic spatial extent (au):  <R**2>=  1512.8233
 Charge=     0.0000 electrons
 Dipole moment (field-independent basis, Debye):
    X=     0.0000    Y=     0.0000    Z=     0.0000  Tot=     0.0000
 Quadrupole moment (field-independent basis, Debye-Ang):
   XX=   -12.4310   YY=   -12.8432   ZZ=   -15.7003
   XY=     0.0000   XZ=     0.0000   YZ=     1.1987
 Traceless Quadrupole moment (field-independent basis, Debye-Ang):
   XX=     1.2271   YY=     0.8150   ZZ=    -2.0421
   XY=     0.0000   XZ=     0.0000   YZ=     1.1987
 Octapole moment (field-independent basis, Debye-Ang**2):
  XXX=     0.0000  YYY=     0.0000  ZZZ=  -235.5050  XYY=     0.0000
  XXY=     0.0000  XXZ=   -62.1552  XZZ=     0.0000  YZZ=    11.9871
  YYZ=   -64.2159  XYZ=     0.0000
 Hexadecapole moment (field-independent basis, Debye-Ang**3):
 XXXX=   -71.8903 YYYY=   -28.3856 ZZZZ= -2378.7732 XXXY=     0.0000
 XXXZ=     0.0000 YYYX=     0.0000 YYYZ=    -0.5040 ZZZX=     0.0000
 ZZZY=    88.4508 XXYY=   -14.5487 XXZZ=  -327.2999 YYZZ=  -329.8756
 XXYZ=     0.8286 YYXZ=     0.0000 ZZXY=     0.0000
 N-N= 3.305010747507D+01 E-N=-2.472640433434D+02  KE= 7.767045816198D+01

 Test job not archived.
 1\1\GINC-RHUBARB\SP\RB3LYP\6-31+G(d)\C2H4\JK905\09-Nov-2007\0\\#B3LYP/
 6-31+G* SCF=TIGHT NOSYMM PUNCH=MO IOP(3/33=1)\\9_11_07\\0,1\C,0,0.6727
 49,0.,5.\C,0,-0.672749,0.,5.\H,0,1.242623,0.87843,5.319722\H,0,1.24262
 3,-0.87843,4.680278\H,0,-1.242623,0.87843,5.319722\H,0,-1.242623,-0.87
 843,4.680278\\Version=x86_64-Linux-G03RevB.05\HF=-78.592986\RMSD=1.488
 e-09\Dipole=0.,0.,0.\PG=D02H [C2"(C1.C1),SG(H4)]\\@


    WHAT WE HAVE LEARNED
 IS LIKE A HANDFUL OF EARTH;
  WHAT WE HAVE YET TO LEARN
   IS LIKE THE WHOLE WORLD.

         -- AVVAYIAR
 Job cpu time:  0 days  0 hours  0 minutes 10.3 seconds.
 File lengths (MBytes):  RWF=     13 Int=      0 D2E=      0 Chk=     10 Scr=      1
 Normal termination of Gaussian 03 at Fri Nov  9 15:50:50 2007.
