 Entering Gaussian System, Link 0=g03
 Input=40_pair.com
 Output=40_pair.log
 Initial command:
 /usr/local/g03/l1.exe /export/home/joe2/code/J_from_g03/examples/ethylene/Gau-17676.inp -scrdir=/export/home/joe2/code/J_from_g03/examples/ethylene/
 Entering Link 1 = /usr/local/g03/l1.exe PID=     17677.
  
 Copyright (c) 1988,1990,1992,1993,1995,1998,2003, Gaussian, Inc.
                  All Rights Reserved.
  
 This is the Gaussian(R) 03 program.  It is based on the
 the Gaussian(R) 98 system (copyright 1998, Gaussian, Inc.),
 the Gaussian(R) 94 system (copyright 1995, Gaussian, Inc.),
 the Gaussian 92(TM) system (copyright 1992, Gaussian, Inc.),
 the Gaussian 90(TM) system (copyright 1990, Gaussian, Inc.),
 the Gaussian 88(TM) system (copyright 1988, Gaussian, Inc.),
 the Gaussian 86(TM) system (copyright 1986, Carnegie Mellon
 University), and the Gaussian 82(TM) system (copyright 1983,
 Carnegie Mellon University). Gaussian is a federally registered
 trademark of Gaussian, Inc.
  
 This software contains proprietary and confidential information,
 including trade secrets, belonging to Gaussian, Inc.
  
 This software is provided under written license and may be
 used, copied, transmitted, or stored only in accord with that
 written license.
  
 The following legend is applicable only to US Government
 contracts under DFARS:
  
                    RESTRICTED RIGHTS LEGEND
  
 Use, duplication or disclosure by the US Government is subject
 to restrictions as set forth in subparagraph (c)(1)(ii) of the
 Rights in Technical Data and Computer Software clause at DFARS
 252.227-7013.
  
 Gaussian, Inc.
 Carnegie Office Park, Building 6, Pittsburgh, PA 15106 USA
  
 The following legend is applicable only to US Government
 contracts under FAR:
  
                    RESTRICTED RIGHTS LEGEND
  
 Use, reproduction and disclosure by the US Government is subject
 to restrictions as set forth in subparagraph (c) of the
 Commercial Computer Software - Restricted Rights clause at FAR
 52.227-19.
  
 Gaussian, Inc.
 Carnegie Office Park, Building 6, Pittsburgh, PA 15106 USA
  
  
 ---------------------------------------------------------------
 Warning -- This program may not be used in any manner that
 competes with the business of Gaussian, Inc. or will provide
 assistance to any competitor of Gaussian, Inc.  The licensee
 of this program is prohibited from giving any competitor of
 Gaussian, Inc. access to this program.  By using this program,
 the user acknowledges that Gaussian, Inc. is engaged in the
 business of creating and licensing software in the field of
 computational chemistry and represents and warrants to the
 licensee that it is not a competitor of Gaussian, Inc. and that
 it will not use this program in any manner prohibited above.
 ---------------------------------------------------------------
  

 Cite this work as:
 Gaussian 03, Revision B.05,
 M. J. Frisch, G. W. Trucks, H. B. Schlegel, G. E. Scuseria, 
 M. A. Robb, J. R. Cheeseman, J. A. Montgomery, Jr., T. Vreven, 
 K. N. Kudin, J. C. Burant, J. M. Millam, S. S. Iyengar, J. Tomasi, 
 V. Barone, B. Mennucci, M. Cossi, G. Scalmani, N. Rega, 
 G. A. Petersson, H. Nakatsuji, M. Hada, M. Ehara, K. Toyota, 
 R. Fukuda, J. Hasegawa, M. Ishida, T. Nakajima, Y. Honda, O. Kitao, 
 H. Nakai, M. Klene, X. Li, J. E. Knox, H. P. Hratchian, J. B. Cross, 
 C. Adamo, J. Jaramillo, R. Gomperts, R. E. Stratmann, O. Yazyev, 
 A. J. Austin, R. Cammi, C. Pomelli, J. W. Ochterski, P. Y. Ayala, 
 K. Morokuma, G. A. Voth, P. Salvador, J. J. Dannenberg, 
 V. G. Zakrzewski, S. Dapprich, A. D. Daniels, M. C. Strain, 
 O. Farkas, D. K. Malick, A. D. Rabuck, K. Raghavachari, 
 J. B. Foresman, J. V. Ortiz, Q. Cui, A. G. Baboul, S. Clifford, 
 J. Cioslowski, B. B. Stefanov, G. Liu, A. Liashenko, P. Piskorz, 
 I. Komaromi, R. L. Martin, D. J. Fox, T. Keith, M. A. Al-Laham, 
 C. Y. Peng, A. Nanayakkara, M. Challacombe, P. M. W. Gill, 
 B. Johnson, W. Chen, M. W. Wong, C. Gonzalez, and J. A. Pople, 
 Gaussian, Inc., Pittsburgh PA, 2003.
 
 *************************************************
 Gaussian 03:  x86_64-Linux-G03RevB.05  8-Nov-2003
                     9-Nov-2007 
 *************************************************
 %nprocshared=2
 Will use up to    2 processors via shared memory.
 %mem=1GB
 ----------------------------------------------------
 #b3lyp/6-31+g* scf=tight nosymm punch=mo iop(3/33=1)
 ----------------------------------------------------
 1/38=1/1;
 2/15=1,17=6,18=5,40=1/2;
 3/5=1,6=6,7=11,11=2,16=1,25=1,30=1,33=1,74=-5/1,2,3;
 4//1;
 5/5=2,32=2,38=5/2;
 6/7=2,8=2,9=2,10=2,28=1/1;
 99/5=1,9=1,10=32/99;
 -------
 9_11_07
 -------
 Symbolic Z-matrix:
 Charge =  0 Multiplicity = 1
 C                     0.67275   0.        0. 
 C                    -0.67275   0.        0. 
 H                     1.24262   0.93481   0. 
 H                     1.24262  -0.93481   0. 
 H                    -1.24262   0.93481   0. 
 H                    -1.24262  -0.93481   0. 
 C                     0.67275   0.        5. 
 C                    -0.67275   0.        5. 
 H                     1.24262   0.7161    5.60088 
 H                     1.24262  -0.7161    4.39912 
 H                    -1.24262   0.7161    5.60088 
 H                    -1.24262  -0.7161    4.39912 
 
                          Input orientation:                          
 ---------------------------------------------------------------------
 Center     Atomic     Atomic              Coordinates (Angstroms)
 Number     Number      Type              X           Y           Z
 ---------------------------------------------------------------------
    1          6             0        0.672749    0.000000    0.000000
    2          6             0       -0.672749    0.000000    0.000000
    3          1             0        1.242623    0.934806    0.000000
    4          1             0        1.242623   -0.934806    0.000000
    5          1             0       -1.242623    0.934806    0.000000
    6          1             0       -1.242623   -0.934806    0.000000
    7          6             0        0.672749    0.000000    5.000000
    8          6             0       -0.672749    0.000000    5.000000
    9          1             0        1.242623    0.716103    5.600882
   10          1             0        1.242623   -0.716103    4.399118
   11          1             0       -1.242623    0.716103    5.600882
   12          1             0       -1.242623   -0.716103    4.399118
 ---------------------------------------------------------------------
                    Distance matrix (angstroms):
                    1          2          3          4          5
     1  C    0.000000
     2  C    1.345498   0.000000
     3  H    1.094814   2.131317   0.000000
     4  H    1.094814   2.131317   1.869612   0.000000
     5  H    2.131317   1.094814   2.485246   3.109967   0.000000
     6  H    2.131317   1.094814   3.109967   2.485246   1.869612
     7  C    5.000000   5.177873   5.118459   5.118459   5.435302
     8  C    5.177873   5.000000   5.435302   5.435302   5.118459
     9  H    5.675160   5.962494   5.605150   5.839125   6.131407
    10  H    4.493306   4.851154   4.698696   4.404551   5.315467
    11  H    5.962494   5.675160   6.131407   6.346009   5.605150
    12  H    4.851154   4.493306   5.315467   5.057323   4.698696
                    6          7          8          9         10
     6  H    0.000000
     7  C    5.435302   0.000000
     8  C    5.118459   1.345498   0.000000
     9  H    6.346009   1.094815   2.131317   0.000000
    10  H    5.057323   1.094815   2.131317   1.869612   0.000000
    11  H    5.839125   2.131317   1.094815   2.485246   3.109968
    12  H    4.404551   2.131317   1.094815   3.109968   2.485246
                   11         12
    11  H    0.000000
    12  H    1.869612   0.000000
 Symmetry turned off by external request.
 Stoichiometry    C4H8
 Framework group  CS[X(C4H8)]
 Deg. of freedom    15
 Full point group                 CS      NOp   2
 Rotational constants (GHZ):     12.7122385      1.4138973      1.3091723
 Standard basis: 6-31+G(d) (6D, 7F)
                         Coordinates in L301:                         
 ---------------------------------------------------------------------
 Center     Atomic     Atomic              Coordinates (Angstroms)
 Number     Number      Type              X           Y           Z
 ---------------------------------------------------------------------
    1          6             0        0.672749    0.000000    0.000000
    2          6             0       -0.672749    0.000000    0.000000
    3          1             0        1.242623    0.934806    0.000000
    4          1             0        1.242623   -0.934806    0.000000
    5          1             0       -1.242623    0.934806    0.000000
    6          1             0       -1.242623   -0.934806    0.000000
    7          6             0        0.672749    0.000000    5.000000
    8          6             0       -0.672749    0.000000    5.000000
    9          1             0        1.242623    0.716103    5.600882
   10          1             0        1.242623   -0.716103    4.399118
   11          1             0       -1.242623    0.716103    5.600882
   12          1             0       -1.242623   -0.716103    4.399118
 ---------------------------------------------------------------------
 LdAtmC:  AtmChg=     6.000000     6.000000     1.000000     1.000000     1.000000
 LdAtmC:  AtmChg=     1.000000     6.000000     6.000000     1.000000     1.000000
 LdAtmC:  AtmChg=     1.000000     1.000000
 AtZEff=  -3.6000000  -3.6000000  -1.0000000  -1.0000000  -1.0000000  -1.0000000  -3.6000000  -3.6000000  -1.0000000  -1.0000000
 AtZEff=  -1.0000000  -1.0000000
 Integral buffers will be    131072 words long.
 Raffenetti 2 integral format.
 Two-electron integral symmetry is turned off.
    92 basis functions,   160 primitive gaussians,    92 cartesian basis functions
    16 alpha electrons       16 beta electrons
       nuclear repulsion energy        92.3861716175 Hartrees.
 NAtoms=   12 NActive=   12 NUniq=   12 SFac= 1.00D+00 NAtFMM=   60 Big=F
 NPDir=0 NMtPBC=     1 NCelOv=     1 NCel=       1 NClECP=     1 NCelD=      1
         NCelK=      1 NCelE2=     1 NClLst=     1 CellRange=     0.0.
 One-electron integrals computed using PRISM.
 Entering OneElI...
 Calculate overlap and kinetic energy integrals
    NBasis =  92  MinDer = 0  MaxDer = 0
 Requested accuracy = 0.1000D-12
 PrsmSu:  NPrtUS=   1 ThrOK=F
 PRISM was handed   134134471 working-precision words and   638 shell-pairs
 *** Overlap *** 
                1             2             3             4             5
      1  0.100000D+01
      2  0.219059D+00  0.100000D+01
      3  0.000000D+00  0.000000D+00  0.100000D+01
      4  0.000000D+00  0.000000D+00  0.000000D+00  0.100000D+01
      5  0.000000D+00  0.000000D+00  0.000000D+00  0.000000D+00  0.100000D+01
      6  0.184261D+00  0.812273D+00  0.000000D+00  0.000000D+00  0.000000D+00
      7  0.000000D+00  0.000000D+00  0.569754D+00  0.000000D+00  0.000000D+00
      8  0.000000D+00  0.000000D+00  0.000000D+00  0.569754D+00  0.000000D+00
      9  0.000000D+00  0.000000D+00  0.000000D+00  0.000000D+00  0.569754D+00
     10  0.697718D-01  0.402091D+00  0.000000D+00  0.000000D+00  0.000000D+00
     11  0.000000D+00  0.000000D+00  0.164679D+00  0.000000D+00  0.000000D+00
     12  0.000000D+00  0.000000D+00  0.000000D+00  0.164679D+00  0.000000D+00
     13  0.000000D+00  0.000000D+00  0.000000D+00  0.000000D+00  0.164679D+00
     14  0.791027D-01  0.710235D+00  0.000000D+00  0.000000D+00  0.000000D+00
     15  0.791027D-01  0.710235D+00  0.000000D+00  0.000000D+00  0.000000D+00
     16  0.791027D-01  0.710235D+00  0.000000D+00  0.000000D+00  0.000000D+00
     17  0.000000D+00  0.000000D+00  0.000000D+00  0.000000D+00  0.000000D+00
     18  0.000000D+00  0.000000D+00  0.000000D+00  0.000000D+00  0.000000D+00
     19  0.000000D+00  0.000000D+00  0.000000D+00  0.000000D+00  0.000000D+00
     20  0.481399D-05  0.194904D-01 -0.426713D-01  0.000000D+00  0.000000D+00
     21  0.194904D-01  0.203366D+00 -0.282219D+00  0.000000D+00  0.000000D+00
     22  0.426713D-01  0.282219D+00 -0.333594D+00  0.000000D+00  0.000000D+00
     23  0.000000D+00  0.000000D+00  0.000000D+00  0.115814D+00  0.000000D+00
     24  0.000000D+00  0.000000D+00  0.000000D+00  0.000000D+00  0.115814D+00
     25  0.643636D-01  0.359351D+00 -0.253511D+00  0.000000D+00  0.000000D+00
     26  0.129620D+00  0.562375D+00 -0.170740D+00  0.000000D+00  0.000000D+00
     27  0.000000D+00  0.000000D+00  0.000000D+00  0.242739D+00  0.000000D+00
     28  0.000000D+00  0.000000D+00  0.000000D+00  0.000000D+00  0.242739D+00
     29  0.527094D-01  0.309785D+00 -0.673317D-01  0.000000D+00  0.000000D+00
     30  0.555561D-01  0.303665D+00  0.598522D-01  0.000000D+00  0.000000D+00
     31  0.000000D+00  0.000000D+00  0.000000D+00  0.126532D+00  0.000000D+00
     32  0.000000D+00  0.000000D+00  0.000000D+00  0.000000D+00  0.126532D+00
     33  0.526767D-01  0.334402D+00 -0.413876D+00  0.000000D+00  0.000000D+00
     34  0.113280D-02  0.928256D-01 -0.142160D+00  0.000000D+00  0.000000D+00
     35  0.113280D-02  0.928256D-01 -0.142160D+00  0.000000D+00  0.000000D+00
     36  0.000000D+00  0.000000D+00  0.000000D+00  0.183392D+00  0.000000D+00
     37  0.000000D+00  0.000000D+00  0.000000D+00  0.000000D+00  0.183392D+00
     38  0.000000D+00  0.000000D+00  0.000000D+00  0.000000D+00  0.000000D+00
     39  0.320525D-01  0.270664D+00  0.190665D+00  0.312763D+00  0.000000D+00
     40  0.916644D-01  0.473962D+00  0.138279D+00  0.226830D+00  0.000000D+00
     41  0.320525D-01  0.270664D+00  0.190665D+00 -0.312763D+00  0.000000D+00
     42  0.916644D-01  0.473962D+00  0.138279D+00 -0.226830D+00  0.000000D+00
     43  0.430533D-04  0.789566D-02 -0.152645D-01  0.744992D-02  0.000000D+00
     44  0.142782D-01  0.109874D+00 -0.102096D+00  0.498287D-01  0.000000D+00
     45  0.430533D-04  0.789566D-02 -0.152645D-01 -0.744992D-02  0.000000D+00
     46  0.142782D-01  0.109874D+00 -0.102096D+00 -0.498287D-01  0.000000D+00
     47  0.000000D+00  0.000000D+00  0.000000D+00  0.000000D+00  0.000000D+00
     48  0.000000D+00  0.000000D+00  0.000000D+00  0.000000D+00  0.000000D+00
     49  0.000000D+00  0.000000D+00  0.000000D+00  0.000000D+00  0.000000D+00
     50  0.000000D+00  0.000000D+00  0.000000D+00  0.000000D+00  0.000000D+00
     51  0.000000D+00  0.000000D+00  0.000000D+00  0.000000D+00  0.000000D+00
     52  0.000000D+00  0.902429D-05  0.000000D+00  0.000000D+00  0.198119D-04
     53  0.000000D+00  0.000000D+00  0.510483D-05  0.000000D+00  0.000000D+00
     54  0.000000D+00  0.000000D+00  0.000000D+00  0.510483D-05  0.000000D+00
     55  0.000000D+00 -0.533810D-04  0.000000D+00  0.000000D+00 -0.112620D-03
     56  0.145172D-02  0.109510D-01  0.000000D+00  0.000000D+00  0.857327D-02
     57  0.000000D+00  0.000000D+00  0.433551D-02  0.000000D+00  0.000000D+00
     58  0.000000D+00  0.000000D+00  0.000000D+00  0.433551D-02  0.000000D+00
     59 -0.568561D-02 -0.399288D-01  0.000000D+00  0.000000D+00 -0.271881D-01
     60  0.000000D+00  0.000000D+00  0.000000D+00  0.000000D+00  0.000000D+00
     61  0.000000D+00  0.000000D+00  0.000000D+00  0.000000D+00  0.000000D+00
     62  0.000000D+00  0.000000D+00  0.000000D+00  0.000000D+00  0.000000D+00
     63  0.000000D+00  0.000000D+00  0.000000D+00  0.000000D+00  0.000000D+00
     64  0.000000D+00  0.000000D+00  0.000000D+00  0.000000D+00  0.000000D+00
     65  0.000000D+00  0.000000D+00  0.000000D+00  0.000000D+00  0.000000D+00
     66  0.000000D+00  0.000000D+00  0.000000D+00  0.000000D+00  0.000000D+00
     67  0.000000D+00  0.000000D+00  0.000000D+00  0.000000D+00  0.000000D+00
     68  0.000000D+00  0.000000D+00  0.000000D+00  0.000000D+00  0.000000D+00
     69  0.000000D+00  0.000000D+00  0.000000D+00  0.000000D+00  0.000000D+00
     70  0.000000D+00  0.000000D+00  0.000000D+00  0.000000D+00  0.000000D+00
     71  0.000000D+00  0.392978D-05 -0.231359D-05  0.000000D+00  0.859754D-05
     72  0.000000D+00  0.625712D-05 -0.148259D-05  0.000000D+00  0.137417D-04
     73  0.000000D+00  0.000000D+00  0.000000D+00  0.221528D-05  0.000000D+00
     74  0.000000D+00 -0.232521D-04  0.137417D-04  0.000000D+00 -0.488501D-04
     75  0.109674D-02  0.843480D-02 -0.177308D-02  0.000000D+00  0.658894D-02
     76  0.115586D-02  0.827654D-02  0.157774D-02  0.000000D+00  0.651916D-02
     77  0.000000D+00  0.000000D+00  0.000000D+00  0.333204D-02  0.000000D+00
     78 -0.429530D-02 -0.307564D-01  0.651916D-02  0.000000D+00 -0.208938D-01
     79  0.000000D+00  0.000000D+00  0.000000D+00  0.000000D+00  0.000000D+00
     80  0.000000D+00  0.000000D+00  0.000000D+00  0.000000D+00  0.000000D+00
     81  0.000000D+00  0.000000D+00  0.000000D+00  0.000000D+00  0.000000D+00
     82  0.000000D+00  0.000000D+00  0.000000D+00  0.000000D+00  0.000000D+00
     83  0.000000D+00  0.000000D+00  0.000000D+00  0.000000D+00  0.000000D+00
     84  0.000000D+00  0.000000D+00  0.000000D+00  0.000000D+00  0.000000D+00
     85  0.000000D+00  0.000000D+00  0.000000D+00  0.000000D+00  0.000000D+00
     86  0.000000D+00  0.000000D+00  0.000000D+00  0.000000D+00  0.125943D-05
     87  0.000000D+00  0.000000D+00  0.000000D+00  0.000000D+00  0.000000D+00
     88  0.240930D-05  0.110306D-03  0.271296D-04 -0.340911D-04  0.209426D-03
     89  0.000000D+00  0.000000D+00  0.000000D+00  0.000000D+00  0.000000D+00
     90  0.000000D+00  0.000000D+00  0.000000D+00  0.000000D+00  0.000000D+00
     91  0.000000D+00  0.000000D+00  0.000000D+00  0.000000D+00  0.000000D+00
     92  0.000000D+00  0.250645D-04 -0.205126D-04 -0.766909D-05  0.471123D-04
                6             7             8             9            10
      6  0.100000D+01
      7  0.000000D+00  0.100000D+01
      8  0.000000D+00  0.000000D+00  0.100000D+01
      9  0.000000D+00  0.000000D+00  0.000000D+00  0.100000D+01
     10  0.727666D+00  0.000000D+00  0.000000D+00  0.000000D+00  0.100000D+01
     11  0.000000D+00  0.588690D+00  0.000000D+00  0.000000D+00  0.000000D+00
     12  0.000000D+00  0.000000D+00  0.588690D+00  0.000000D+00  0.000000D+00
     13  0.000000D+00  0.000000D+00  0.000000D+00  0.588690D+00  0.000000D+00
     14  0.629936D+00  0.000000D+00  0.000000D+00  0.000000D+00  0.323540D+00
     15  0.629936D+00  0.000000D+00  0.000000D+00  0.000000D+00  0.323540D+00
     16  0.629936D+00  0.000000D+00  0.000000D+00  0.000000D+00  0.323540D+00
     17  0.000000D+00  0.000000D+00  0.000000D+00  0.000000D+00  0.000000D+00
     18  0.000000D+00  0.000000D+00  0.000000D+00  0.000000D+00  0.000000D+00
     19  0.000000D+00  0.000000D+00  0.000000D+00  0.000000D+00  0.000000D+00
     20  0.643636D-01 -0.129620D+00  0.000000D+00  0.000000D+00  0.527094D-01
     21  0.359351D+00 -0.562375D+00  0.000000D+00  0.000000D+00  0.309785D+00
     22  0.253511D+00 -0.170740D+00  0.000000D+00  0.000000D+00  0.673317D-01
     23  0.000000D+00  0.000000D+00  0.242739D+00  0.000000D+00  0.000000D+00
     24  0.000000D+00  0.000000D+00  0.000000D+00  0.242739D+00  0.000000D+00
     25  0.579631D+00 -0.605354D+00  0.000000D+00  0.000000D+00  0.581168D+00
     26  0.605354D+00 -0.525884D-01  0.000000D+00  0.000000D+00  0.250193D+00
     27  0.000000D+00  0.000000D+00  0.579631D+00  0.000000D+00  0.000000D+00
     28  0.000000D+00  0.000000D+00  0.000000D+00  0.579631D+00  0.000000D+00
     29  0.581168D+00 -0.250193D+00  0.000000D+00  0.000000D+00  0.867984D+00
     30  0.491037D+00  0.258780D+00  0.000000D+00  0.000000D+00  0.461882D+00
     31  0.000000D+00  0.000000D+00  0.470171D+00  0.000000D+00  0.000000D+00
     32  0.000000D+00  0.000000D+00  0.000000D+00  0.470171D+00  0.000000D+00
     33  0.353148D+00 -0.422973D+00  0.000000D+00  0.000000D+00  0.254635D+00
     34  0.255918D+00 -0.441451D+00  0.000000D+00  0.000000D+00  0.247363D+00
     35  0.255918D+00 -0.441451D+00  0.000000D+00  0.000000D+00  0.247363D+00
     36  0.000000D+00  0.000000D+00  0.161252D+00  0.000000D+00  0.000000D+00
     37  0.000000D+00  0.000000D+00  0.000000D+00  0.161252D+00  0.000000D+00
     38  0.000000D+00  0.000000D+00  0.000000D+00  0.000000D+00  0.000000D+00
     39  0.375116D+00  0.267879D+00  0.439422D+00  0.000000D+00  0.258482D+00
     40  0.702351D+00  0.303675D+00  0.498140D+00  0.000000D+00  0.640357D+00
     41  0.375116D+00  0.267879D+00 -0.439422D+00  0.000000D+00  0.258482D+00
     42  0.702351D+00  0.303675D+00 -0.498140D+00  0.000000D+00  0.640357D+00
     43  0.740737D-01 -0.176934D+00  0.863532D-01  0.000000D+00  0.158045D+00
     44  0.262382D+00 -0.381297D+00  0.186094D+00  0.000000D+00  0.424412D+00
     45  0.740737D-01 -0.176934D+00 -0.863532D-01  0.000000D+00  0.158045D+00
     46  0.262382D+00 -0.381297D+00 -0.186094D+00  0.000000D+00  0.424412D+00
     47  0.000000D+00  0.000000D+00  0.000000D+00  0.000000D+00  0.145172D-02
     48  0.902429D-05  0.000000D+00  0.000000D+00  0.533810D-04  0.109510D-01
     49  0.000000D+00  0.510483D-05  0.000000D+00  0.000000D+00  0.000000D+00
     50  0.000000D+00  0.000000D+00  0.510483D-05  0.000000D+00  0.000000D+00
     51 -0.198119D-04  0.000000D+00  0.000000D+00 -0.112620D-03 -0.857327D-02
     52  0.536132D-03  0.000000D+00  0.000000D+00  0.208074D-02  0.326373D-01
     53  0.000000D+00  0.536132D-03  0.000000D+00  0.000000D+00  0.000000D+00
     54  0.000000D+00  0.000000D+00  0.536132D-03  0.000000D+00  0.000000D+00
     55 -0.208074D-02  0.000000D+00  0.000000D+00 -0.753923D-02 -0.522126D-01
     56  0.326373D-01  0.000000D+00  0.000000D+00  0.522126D-01  0.141542D+00
     57  0.000000D+00  0.264040D-01  0.000000D+00  0.000000D+00  0.000000D+00
     58  0.000000D+00  0.000000D+00  0.264040D-01  0.000000D+00  0.000000D+00
     59 -0.102474D+00  0.000000D+00  0.000000D+00 -0.137532D+00 -0.279893D+00
     60  0.249530D-05  0.000000D+00  0.000000D+00  0.159953D-04  0.794057D-02
     61  0.249530D-05  0.000000D+00  0.000000D+00  0.159953D-04  0.794057D-02
     62  0.155871D-04  0.000000D+00  0.000000D+00  0.931692D-04  0.111641D-01
     63  0.000000D+00  0.000000D+00  0.000000D+00  0.000000D+00  0.000000D+00
     64  0.000000D+00 -0.584271D-05  0.000000D+00  0.000000D+00  0.000000D+00
     65  0.000000D+00  0.000000D+00 -0.584271D-05  0.000000D+00  0.000000D+00
     66  0.000000D+00  0.000000D+00  0.000000D+00  0.000000D+00  0.109674D-02
     67  0.392978D-05 -0.625712D-05  0.000000D+00  0.232521D-04  0.843480D-02
     68  0.231359D-05 -0.148259D-05  0.000000D+00  0.137417D-04  0.177308D-02
     69  0.000000D+00  0.000000D+00  0.221528D-05  0.000000D+00  0.000000D+00
     70 -0.859754D-05  0.137417D-04  0.000000D+00 -0.488501D-04 -0.658894D-02
     71  0.310759D-03 -0.324550D-03  0.000000D+00  0.120606D-02  0.260666D-01
     72  0.324550D-03 -0.281943D-04  0.000000D+00  0.125958D-02  0.112217D-01
     73  0.000000D+00  0.000000D+00  0.310759D-03  0.000000D+00  0.000000D+00
     74 -0.120606D-02  0.125958D-02  0.000000D+00 -0.436997D-02 -0.417008D-01
     75  0.260666D-01 -0.112217D-01  0.000000D+00  0.417008D-01  0.122856D+00
     76  0.220240D-01  0.116068D-01  0.000000D+00  0.352336D-01  0.653757D-01
     77  0.000000D+00  0.000000D+00  0.210882D-01  0.000000D+00  0.000000D+00
     78 -0.818434D-01  0.352336D-01  0.000000D+00 -0.109843D+00 -0.242942D+00
     79  0.139889D-05 -0.167548D-05  0.000000D+00  0.896710D-05  0.624945D-02
     80  0.101374D-05 -0.174867D-05  0.000000D+00  0.649823D-05  0.607098D-02
     81  0.633240D-05 -0.109232D-04  0.000000D+00  0.378509D-04  0.853551D-02
     82  0.000000D+00  0.000000D+00  0.000000D+00  0.000000D+00  0.000000D+00
     83 -0.247900D-05  0.190255D-05  0.000000D+00 -0.152520D-04 -0.114871D-02
     84  0.000000D+00  0.000000D+00 -0.237366D-05  0.000000D+00  0.000000D+00
     85  0.000000D+00  0.000000D+00  0.000000D+00  0.000000D+00  0.270450D-02
     86  0.760542D-04  0.328835D-04  0.413214D-04  0.323188D-03  0.141221D-01
     87  0.400794D-04  0.281665D-04 -0.353940D-04  0.217430D-03  0.158253D-01
     88  0.261787D-02  0.113189D-02 -0.142233D-02  0.873754D-02  0.619290D-01
     89  0.000000D+00  0.000000D+00  0.000000D+00  0.000000D+00  0.165441D-02
     90  0.284121D-04 -0.412888D-04  0.154367D-04  0.120736D-03  0.935978D-02
     91  0.809526D-05 -0.191026D-04 -0.714190D-05  0.438737D-04  0.967908D-02
     92  0.977976D-03 -0.142121D-02 -0.531349D-03  0.326415D-02  0.410450D-01
               11            12            13            14            15
     11  0.100000D+01
     12  0.000000D+00  0.100000D+01
     13  0.000000D+00  0.000000D+00  0.100000D+01
     14  0.000000D+00  0.000000D+00  0.000000D+00  0.100000D+01
     15  0.000000D+00  0.000000D+00  0.000000D+00  0.333333D+00  0.100000D+01
     16  0.000000D+00  0.000000D+00  0.000000D+00  0.333333D+00  0.333333D+00
     17  0.000000D+00  0.000000D+00  0.000000D+00  0.000000D+00  0.000000D+00
     18  0.000000D+00  0.000000D+00  0.000000D+00  0.000000D+00  0.000000D+00
     19  0.000000D+00  0.000000D+00  0.000000D+00  0.000000D+00  0.000000D+00
     20 -0.555561D-01  0.000000D+00  0.000000D+00  0.526767D-01  0.113280D-02
     21 -0.303665D+00  0.000000D+00  0.000000D+00  0.334402D+00  0.928256D-01
     22  0.598522D-01  0.000000D+00  0.000000D+00  0.413876D+00  0.142160D+00
     23  0.000000D+00  0.126532D+00  0.000000D+00  0.000000D+00  0.000000D+00
     24  0.000000D+00  0.000000D+00  0.126532D+00  0.000000D+00  0.000000D+00
     25 -0.491037D+00  0.000000D+00  0.000000D+00  0.353148D+00  0.255918D+00
     26  0.258780D+00  0.000000D+00  0.000000D+00  0.422973D+00  0.441451D+00
     27  0.000000D+00  0.470171D+00  0.000000D+00  0.000000D+00  0.000000D+00
     28  0.000000D+00  0.000000D+00  0.470171D+00  0.000000D+00  0.000000D+00
     29 -0.461882D+00  0.000000D+00  0.000000D+00  0.254635D+00  0.247363D+00
     30  0.622202D+00  0.000000D+00  0.000000D+00  0.229601D+00  0.249594D+00
     31  0.000000D+00  0.867984D+00  0.000000D+00  0.000000D+00  0.000000D+00
     32  0.000000D+00  0.000000D+00  0.867984D+00  0.000000D+00  0.000000D+00
     33 -0.229601D+00  0.000000D+00  0.000000D+00  0.487216D+00  0.154963D+00
     34 -0.249594D+00  0.000000D+00  0.000000D+00  0.154963D+00  0.753228D-01
     35 -0.249594D+00  0.000000D+00  0.000000D+00  0.154963D+00  0.251076D-01
     36  0.000000D+00  0.236690D-01  0.000000D+00  0.000000D+00  0.000000D+00
     37  0.000000D+00  0.000000D+00  0.236690D-01  0.000000D+00  0.000000D+00
     38  0.000000D+00  0.000000D+00  0.000000D+00  0.000000D+00  0.000000D+00
     39  0.109596D+00  0.179778D+00  0.000000D+00  0.207129D+00  0.361177D+00
     40  0.226998D+00  0.372362D+00  0.000000D+00  0.371459D+00  0.408549D+00
     41  0.109596D+00 -0.179778D+00  0.000000D+00  0.207129D+00  0.361177D+00
     42  0.226998D+00 -0.372362D+00  0.000000D+00  0.371459D+00  0.408549D+00
     43 -0.225200D+00  0.109910D+00  0.000000D+00  0.137730D-01  0.451326D-02
     44 -0.505665D+00  0.246792D+00  0.000000D+00  0.120267D+00  0.822582D-01
     45 -0.225200D+00 -0.109910D+00  0.000000D+00  0.137730D-01  0.451326D-02
     46 -0.505665D+00 -0.246792D+00  0.000000D+00  0.120267D+00  0.822582D-01
     47  0.000000D+00  0.000000D+00  0.568561D-02  0.000000D+00  0.000000D+00
     48  0.000000D+00  0.000000D+00  0.399288D-01  0.000000D+00  0.000000D+00
     49  0.433551D-02  0.000000D+00  0.000000D+00  0.000000D+00  0.000000D+00
     50  0.000000D+00  0.433551D-02  0.000000D+00  0.000000D+00  0.000000D+00
     51  0.000000D+00  0.000000D+00 -0.271881D-01  0.000000D+00  0.000000D+00
     52  0.000000D+00  0.000000D+00  0.102474D+00  0.249530D-05  0.249530D-05
     53  0.264040D-01  0.000000D+00  0.000000D+00  0.000000D+00  0.000000D+00
     54  0.000000D+00  0.264040D-01  0.000000D+00  0.000000D+00  0.000000D+00
     55  0.000000D+00  0.000000D+00 -0.137532D+00 -0.159953D-04 -0.159953D-04
     56  0.000000D+00  0.000000D+00  0.279893D+00  0.794057D-02  0.794057D-02
     57  0.141542D+00  0.000000D+00  0.000000D+00  0.000000D+00  0.000000D+00
     58  0.000000D+00  0.141542D+00  0.000000D+00  0.000000D+00  0.000000D+00
     59  0.000000D+00  0.000000D+00 -0.411932D+00 -0.297741D-01 -0.297741D-01
     60  0.000000D+00  0.000000D+00  0.297741D-01  0.000000D+00  0.000000D+00
     61  0.000000D+00  0.000000D+00  0.297741D-01  0.000000D+00  0.000000D+00
     62  0.000000D+00  0.000000D+00  0.386007D-01  0.000000D+00  0.000000D+00
     63  0.000000D+00  0.000000D+00  0.000000D+00  0.000000D+00  0.000000D+00
     64 -0.282347D-02  0.000000D+00  0.000000D+00  0.000000D+00  0.000000D+00
     65  0.000000D+00 -0.282347D-02  0.000000D+00  0.000000D+00  0.000000D+00
     66 -0.115586D-02  0.000000D+00  0.429530D-02  0.000000D+00  0.000000D+00
     67 -0.827654D-02  0.000000D+00  0.307564D-01  0.000000D+00  0.000000D+00
     68  0.157774D-02  0.000000D+00  0.651916D-02  0.000000D+00  0.000000D+00
     69  0.000000D+00  0.333204D-02  0.000000D+00  0.000000D+00  0.000000D+00
     70  0.651916D-02  0.000000D+00 -0.208938D-01  0.000000D+00  0.000000D+00
     71 -0.220240D-01  0.000000D+00  0.818434D-01  0.139889D-05  0.101374D-05
     72  0.116068D-01  0.000000D+00  0.352336D-01  0.167548D-05  0.174867D-05
     73  0.000000D+00  0.210882D-01  0.000000D+00  0.000000D+00  0.000000D+00
     74  0.352336D-01  0.000000D+00 -0.109843D+00 -0.896710D-05 -0.649823D-05
     75 -0.653757D-01  0.000000D+00  0.242942D+00  0.624945D-02  0.607098D-02
     76  0.880678D-01  0.000000D+00  0.129277D+00  0.563504D-02  0.612573D-02
     77  0.000000D+00  0.122856D+00  0.000000D+00  0.000000D+00  0.000000D+00
     78  0.129277D+00  0.000000D+00 -0.357551D+00 -0.234330D-01 -0.227638D-01
     79 -0.563504D-02  0.000000D+00  0.234330D-01  0.000000D+00  0.000000D+00
     80 -0.612573D-02  0.000000D+00  0.227638D-01  0.000000D+00  0.000000D+00
     81 -0.861250D-02  0.000000D+00  0.295122D-01  0.000000D+00  0.000000D+00
     82  0.000000D+00  0.580902D-03  0.000000D+00  0.000000D+00  0.000000D+00
     83 -0.999621D-03  0.000000D+00 -0.372630D-02  0.000000D+00  0.000000D+00
     84  0.000000D+00 -0.215869D-02  0.000000D+00  0.000000D+00  0.000000D+00
     85  0.114558D-02  0.143954D-02  0.112591D-01  0.000000D+00  0.000000D+00
     86  0.500611D-02  0.629067D-02  0.492015D-01  0.000000D+00  0.000000D+00
     87  0.670572D-02 -0.842640D-02  0.517645D-01  0.000000D+00  0.000000D+00
     88  0.219530D-01 -0.275862D-01  0.169466D+00  0.413718D-04  0.427864D-04
     89 -0.235514D-02  0.880519D-03  0.688683D-02  0.000000D+00  0.000000D+00
     90 -0.111517D-01  0.416930D-02  0.326095D-01  0.000000D+00  0.000000D+00
     91 -0.137834D-01 -0.515323D-02  0.316570D-01  0.000000D+00  0.000000D+00
     92 -0.489029D-01 -0.182834D-01  0.112318D+00  0.133949D-04  0.861471D-05
               16            17            18            19            20
     16  0.100000D+01
     17  0.000000D+00  0.100000D+01
     18  0.000000D+00  0.000000D+00  0.100000D+01
     19  0.000000D+00  0.000000D+00  0.000000D+00  0.100000D+01
     20  0.113280D-02  0.000000D+00  0.000000D+00  0.000000D+00  0.100000D+01
     21  0.928256D-01  0.000000D+00  0.000000D+00  0.000000D+00  0.219059D+00
     22  0.142160D+00  0.000000D+00  0.000000D+00  0.000000D+00  0.000000D+00
     23  0.000000D+00 -0.183392D+00  0.000000D+00  0.000000D+00  0.000000D+00
     24  0.000000D+00  0.000000D+00 -0.183392D+00  0.000000D+00  0.000000D+00
     25  0.255918D+00  0.000000D+00  0.000000D+00  0.000000D+00  0.184261D+00
     26  0.441451D+00  0.000000D+00  0.000000D+00  0.000000D+00  0.000000D+00
     27  0.000000D+00 -0.161252D+00  0.000000D+00  0.000000D+00  0.000000D+00
     28  0.000000D+00  0.000000D+00 -0.161252D+00  0.000000D+00  0.000000D+00
     29  0.247363D+00  0.000000D+00  0.000000D+00  0.000000D+00  0.697718D-01
     30  0.249594D+00  0.000000D+00  0.000000D+00  0.000000D+00  0.000000D+00
     31  0.000000D+00 -0.236690D-01  0.000000D+00  0.000000D+00  0.000000D+00
     32  0.000000D+00  0.000000D+00 -0.236690D-01  0.000000D+00  0.000000D+00
     33  0.154963D+00  0.000000D+00  0.000000D+00  0.000000D+00  0.791027D-01
     34  0.251076D-01  0.000000D+00  0.000000D+00  0.000000D+00  0.791027D-01
     35  0.753228D-01  0.000000D+00  0.000000D+00  0.000000D+00  0.791027D-01
     36  0.000000D+00 -0.314243D+00  0.000000D+00  0.000000D+00  0.000000D+00
     37  0.000000D+00  0.000000D+00 -0.314243D+00  0.000000D+00  0.000000D+00
     38  0.000000D+00  0.000000D+00  0.000000D+00  0.753228D-01  0.000000D+00
     39  0.116021D+00  0.258857D+00  0.000000D+00  0.000000D+00  0.430533D-04
     40  0.349523D+00  0.623253D-01  0.000000D+00  0.000000D+00  0.142782D-01
     41  0.116021D+00 -0.258857D+00  0.000000D+00  0.000000D+00  0.430533D-04
     42  0.349523D+00 -0.623253D-01  0.000000D+00  0.000000D+00  0.142782D-01
     43  0.161797D-02 -0.102751D-01  0.000000D+00  0.000000D+00  0.320525D-01
     44  0.703737D-01 -0.421768D-01  0.000000D+00  0.000000D+00  0.916644D-01
     45  0.161797D-02  0.102751D-01  0.000000D+00  0.000000D+00  0.320525D-01
     46  0.703737D-01  0.421768D-01  0.000000D+00  0.000000D+00  0.916644D-01
     47  0.000000D+00  0.000000D+00  0.000000D+00  0.000000D+00  0.000000D+00
     48  0.000000D+00  0.000000D+00  0.000000D+00  0.000000D+00  0.000000D+00
     49  0.000000D+00  0.000000D+00  0.000000D+00  0.000000D+00  0.000000D+00
     50  0.000000D+00  0.000000D+00  0.000000D+00  0.000000D+00  0.000000D+00
     51  0.000000D+00  0.000000D+00  0.000000D+00  0.000000D+00  0.000000D+00
     52  0.155871D-04  0.000000D+00  0.000000D+00  0.000000D+00  0.000000D+00
     53  0.000000D+00  0.000000D+00  0.584271D-05  0.000000D+00  0.000000D+00
     54  0.000000D+00  0.000000D+00  0.000000D+00  0.584271D-05  0.000000D+00
     55 -0.931692D-04  0.000000D+00  0.000000D+00  0.000000D+00  0.000000D+00
     56  0.111641D-01  0.000000D+00  0.000000D+00  0.000000D+00  0.109674D-02
     57  0.000000D+00  0.000000D+00  0.282347D-02  0.000000D+00 -0.115586D-02
     58  0.000000D+00  0.000000D+00  0.000000D+00  0.282347D-02  0.000000D+00
     59 -0.386007D-01  0.000000D+00  0.000000D+00  0.000000D+00 -0.429530D-02
     60  0.000000D+00  0.000000D+00  0.000000D+00  0.000000D+00  0.000000D+00
     61  0.000000D+00  0.000000D+00  0.000000D+00  0.000000D+00  0.000000D+00
     62  0.000000D+00  0.000000D+00  0.000000D+00  0.000000D+00  0.000000D+00
     63  0.000000D+00  0.000000D+00  0.000000D+00  0.000000D+00  0.000000D+00
     64  0.000000D+00  0.000000D+00  0.000000D+00  0.000000D+00  0.000000D+00
     65  0.000000D+00  0.000000D+00  0.000000D+00  0.000000D+00  0.000000D+00
     66  0.000000D+00  0.000000D+00  0.000000D+00  0.000000D+00  0.000000D+00
     67  0.000000D+00  0.000000D+00  0.000000D+00  0.000000D+00  0.000000D+00
     68  0.000000D+00  0.000000D+00  0.000000D+00  0.000000D+00  0.000000D+00
     69  0.000000D+00  0.000000D+00  0.000000D+00  0.000000D+00  0.000000D+00
     70  0.000000D+00  0.000000D+00  0.000000D+00  0.000000D+00  0.000000D+00
     71  0.633240D-05  0.000000D+00 -0.247900D-05  0.000000D+00  0.000000D+00
     72  0.109232D-04  0.000000D+00 -0.190255D-05  0.000000D+00  0.000000D+00
     73  0.000000D+00  0.000000D+00  0.000000D+00  0.237366D-05  0.000000D+00
     74 -0.378509D-04  0.000000D+00  0.152520D-04  0.000000D+00  0.000000D+00
     75  0.853551D-02  0.000000D+00 -0.114871D-02  0.000000D+00  0.145172D-02
     76  0.861250D-02  0.000000D+00  0.999621D-03  0.000000D+00  0.000000D+00
     77  0.000000D+00 -0.580902D-03  0.000000D+00  0.215869D-02  0.000000D+00
     78 -0.295122D-01  0.000000D+00  0.372630D-02  0.000000D+00 -0.568561D-02
     79  0.000000D+00  0.000000D+00  0.000000D+00  0.000000D+00  0.000000D+00
     80  0.000000D+00  0.000000D+00  0.000000D+00  0.000000D+00  0.000000D+00
     81  0.000000D+00  0.000000D+00  0.000000D+00  0.000000D+00  0.000000D+00
     82  0.000000D+00  0.000000D+00  0.000000D+00  0.000000D+00  0.000000D+00
     83  0.000000D+00  0.000000D+00  0.000000D+00  0.000000D+00  0.000000D+00
     84  0.000000D+00  0.000000D+00  0.000000D+00  0.000000D+00  0.000000D+00
     85  0.000000D+00  0.000000D+00  0.000000D+00  0.000000D+00  0.000000D+00
     86  0.000000D+00  0.000000D+00  0.000000D+00  0.000000D+00  0.000000D+00
     87  0.000000D+00  0.000000D+00  0.000000D+00  0.000000D+00  0.000000D+00
     88  0.184517D-03 -0.531755D-05  0.326664D-04 -0.410486D-04  0.000000D+00
     89  0.000000D+00  0.000000D+00  0.000000D+00  0.000000D+00  0.000000D+00
     90  0.000000D+00  0.000000D+00  0.000000D+00  0.000000D+00  0.000000D+00
     91  0.000000D+00  0.000000D+00  0.000000D+00  0.000000D+00  0.000000D+00
     92  0.371511D-04  0.359849D-05 -0.221060D-04 -0.826481D-05  0.240930D-05
               21            22            23            24            25
     21  0.100000D+01
     22  0.000000D+00  0.100000D+01
     23  0.000000D+00  0.000000D+00  0.100000D+01
     24  0.000000D+00  0.000000D+00  0.000000D+00  0.100000D+01
     25  0.812273D+00  0.000000D+00  0.000000D+00  0.000000D+00  0.100000D+01
     26  0.000000D+00  0.569754D+00  0.000000D+00  0.000000D+00  0.000000D+00
     27  0.000000D+00  0.000000D+00  0.569754D+00  0.000000D+00  0.000000D+00
     28  0.000000D+00  0.000000D+00  0.000000D+00  0.569754D+00  0.000000D+00
     29  0.402091D+00  0.000000D+00  0.000000D+00  0.000000D+00  0.727666D+00
     30  0.000000D+00  0.164679D+00  0.000000D+00  0.000000D+00  0.000000D+00
     31  0.000000D+00  0.000000D+00  0.164679D+00  0.000000D+00  0.000000D+00
     32  0.000000D+00  0.000000D+00  0.000000D+00  0.164679D+00  0.000000D+00
     33  0.710235D+00  0.000000D+00  0.000000D+00  0.000000D+00  0.629936D+00
     34  0.710235D+00  0.000000D+00  0.000000D+00  0.000000D+00  0.629936D+00
     35  0.710235D+00  0.000000D+00  0.000000D+00  0.000000D+00  0.629936D+00
     36  0.000000D+00  0.000000D+00  0.000000D+00  0.000000D+00  0.000000D+00
     37  0.000000D+00  0.000000D+00  0.000000D+00  0.000000D+00  0.000000D+00
     38  0.000000D+00  0.000000D+00  0.000000D+00  0.000000D+00  0.000000D+00
     39  0.789566D-02  0.152645D-01  0.744992D-02  0.000000D+00  0.740737D-01
     40  0.109874D+00  0.102096D+00  0.498287D-01  0.000000D+00  0.262382D+00
     41  0.789566D-02  0.152645D-01 -0.744992D-02  0.000000D+00  0.740737D-01
     42  0.109874D+00  0.102096D+00 -0.498287D-01  0.000000D+00  0.262382D+00
     43  0.270664D+00 -0.190665D+00  0.312763D+00  0.000000D+00  0.375116D+00
     44  0.473962D+00 -0.138279D+00  0.226830D+00  0.000000D+00  0.702351D+00
     45  0.270664D+00 -0.190665D+00 -0.312763D+00  0.000000D+00  0.375116D+00
     46  0.473962D+00 -0.138279D+00 -0.226830D+00  0.000000D+00  0.702351D+00
     47  0.000000D+00  0.000000D+00  0.000000D+00  0.000000D+00  0.000000D+00
     48  0.000000D+00  0.000000D+00  0.000000D+00  0.000000D+00  0.392978D-05
     49  0.000000D+00  0.000000D+00  0.000000D+00  0.000000D+00 -0.231359D-05
     50  0.000000D+00  0.000000D+00  0.000000D+00  0.000000D+00  0.000000D+00
     51  0.000000D+00  0.000000D+00  0.000000D+00  0.000000D+00 -0.859754D-05
     52  0.392978D-05  0.231359D-05  0.000000D+00  0.859754D-05  0.310759D-03
     53 -0.625712D-05 -0.148259D-05  0.000000D+00 -0.137417D-04 -0.324550D-03
     54  0.000000D+00  0.000000D+00  0.221528D-05  0.000000D+00  0.000000D+00
     55 -0.232521D-04 -0.137417D-04  0.000000D+00 -0.488501D-04 -0.120606D-02
     56  0.843480D-02  0.177308D-02  0.000000D+00  0.658894D-02  0.260666D-01
     57 -0.827654D-02  0.157774D-02  0.000000D+00 -0.651916D-02 -0.220240D-01
     58  0.000000D+00  0.000000D+00  0.333204D-02  0.000000D+00  0.000000D+00
     59 -0.307564D-01 -0.651916D-02  0.000000D+00 -0.208938D-01 -0.818434D-01
     60  0.000000D+00  0.000000D+00  0.000000D+00  0.000000D+00  0.139889D-05
     61  0.000000D+00  0.000000D+00  0.000000D+00  0.000000D+00  0.101374D-05
     62  0.000000D+00  0.000000D+00  0.000000D+00  0.000000D+00  0.633240D-05
     63  0.000000D+00  0.000000D+00  0.000000D+00  0.000000D+00  0.000000D+00
     64  0.000000D+00  0.000000D+00  0.000000D+00  0.000000D+00  0.247900D-05
     65  0.000000D+00  0.000000D+00  0.000000D+00  0.000000D+00  0.000000D+00
     66  0.000000D+00  0.000000D+00  0.000000D+00  0.000000D+00  0.000000D+00
     67  0.000000D+00  0.000000D+00  0.000000D+00  0.000000D+00  0.902429D-05
     68  0.000000D+00  0.000000D+00  0.000000D+00  0.000000D+00  0.000000D+00
     69  0.000000D+00  0.000000D+00  0.000000D+00  0.000000D+00  0.000000D+00
     70  0.000000D+00  0.000000D+00  0.000000D+00  0.000000D+00 -0.198119D-04
     71  0.902429D-05  0.000000D+00  0.000000D+00  0.198119D-04  0.536132D-03
     72  0.000000D+00  0.510483D-05  0.000000D+00  0.000000D+00  0.000000D+00
     73  0.000000D+00  0.000000D+00  0.510483D-05  0.000000D+00  0.000000D+00
     74 -0.533810D-04  0.000000D+00  0.000000D+00 -0.112620D-03 -0.208074D-02
     75  0.109510D-01  0.000000D+00  0.000000D+00  0.857327D-02  0.326373D-01
     76  0.000000D+00  0.433551D-02  0.000000D+00  0.000000D+00  0.000000D+00
     77  0.000000D+00  0.000000D+00  0.433551D-02  0.000000D+00  0.000000D+00
     78 -0.399288D-01  0.000000D+00  0.000000D+00 -0.271881D-01 -0.102474D+00
     79  0.000000D+00  0.000000D+00  0.000000D+00  0.000000D+00  0.249530D-05
     80  0.000000D+00  0.000000D+00  0.000000D+00  0.000000D+00  0.249530D-05
     81  0.000000D+00  0.000000D+00  0.000000D+00  0.000000D+00  0.155871D-04
     82  0.000000D+00  0.000000D+00  0.000000D+00  0.000000D+00  0.000000D+00
     83  0.000000D+00  0.000000D+00  0.000000D+00  0.000000D+00  0.000000D+00
     84  0.000000D+00  0.000000D+00  0.000000D+00  0.000000D+00  0.000000D+00
     85  0.000000D+00  0.000000D+00  0.000000D+00  0.000000D+00  0.000000D+00
     86  0.000000D+00  0.000000D+00  0.000000D+00  0.000000D+00  0.284121D-04
     87  0.000000D+00  0.000000D+00  0.000000D+00  0.000000D+00  0.809526D-05
     88  0.250645D-04  0.205126D-04 -0.766909D-05  0.471123D-04  0.977976D-03
     89  0.000000D+00  0.000000D+00  0.000000D+00  0.000000D+00  0.000000D+00
     90  0.000000D+00  0.000000D+00  0.000000D+00  0.125943D-05  0.760542D-04
     91  0.000000D+00  0.000000D+00  0.000000D+00  0.000000D+00  0.400794D-04
     92  0.110306D-03 -0.271296D-04 -0.340911D-04  0.209426D-03  0.261787D-02
               26            27            28            29            30
     26  0.100000D+01
     27  0.000000D+00  0.100000D+01
     28  0.000000D+00  0.000000D+00  0.100000D+01
     29  0.000000D+00  0.000000D+00  0.000000D+00  0.100000D+01
     30  0.588690D+00  0.000000D+00  0.000000D+00  0.000000D+00  0.100000D+01
     31  0.000000D+00  0.588690D+00  0.000000D+00  0.000000D+00  0.000000D+00
     32  0.000000D+00  0.000000D+00  0.588690D+00  0.000000D+00  0.000000D+00
     33  0.000000D+00  0.000000D+00  0.000000D+00  0.323540D+00  0.000000D+00
     34  0.000000D+00  0.000000D+00  0.000000D+00  0.323540D+00  0.000000D+00
     35  0.000000D+00  0.000000D+00  0.000000D+00  0.323540D+00  0.000000D+00
     36  0.000000D+00  0.000000D+00  0.000000D+00  0.000000D+00  0.000000D+00
     37  0.000000D+00  0.000000D+00  0.000000D+00  0.000000D+00  0.000000D+00
     38  0.000000D+00  0.000000D+00  0.000000D+00  0.000000D+00  0.000000D+00
     39  0.176934D+00  0.863532D-01  0.000000D+00  0.158045D+00  0.225200D+00
     40  0.381297D+00  0.186094D+00  0.000000D+00  0.424412D+00  0.505665D+00
     41  0.176934D+00 -0.863532D-01  0.000000D+00  0.158045D+00  0.225200D+00
     42  0.381297D+00 -0.186094D+00  0.000000D+00  0.424412D+00  0.505665D+00
     43 -0.267879D+00  0.439422D+00  0.000000D+00  0.258482D+00 -0.109596D+00
     44 -0.303675D+00  0.498140D+00  0.000000D+00  0.640357D+00 -0.226998D+00
     45 -0.267879D+00 -0.439422D+00  0.000000D+00  0.258482D+00 -0.109596D+00
     46 -0.303675D+00 -0.498140D+00  0.000000D+00  0.640357D+00 -0.226998D+00
     47  0.000000D+00  0.000000D+00  0.000000D+00  0.109674D-02  0.115586D-02
     48  0.625712D-05  0.000000D+00  0.232521D-04  0.843480D-02  0.827654D-02
     49 -0.148259D-05  0.000000D+00 -0.137417D-04 -0.177308D-02  0.157774D-02
     50  0.000000D+00  0.221528D-05  0.000000D+00  0.000000D+00  0.000000D+00
     51 -0.137417D-04  0.000000D+00 -0.488501D-04 -0.658894D-02 -0.651916D-02
     52  0.324550D-03  0.000000D+00  0.120606D-02  0.260666D-01  0.220240D-01
     53 -0.281943D-04  0.000000D+00 -0.125958D-02 -0.112217D-01  0.116068D-01
     54  0.000000D+00  0.310759D-03  0.000000D+00  0.000000D+00  0.000000D+00
     55 -0.125958D-02  0.000000D+00 -0.436997D-02 -0.417008D-01 -0.352336D-01
     56  0.112217D-01  0.000000D+00  0.417008D-01  0.122856D+00  0.653757D-01
     57  0.116068D-01  0.000000D+00 -0.352336D-01 -0.653757D-01  0.880678D-01
     58  0.000000D+00  0.210882D-01  0.000000D+00  0.000000D+00  0.000000D+00
     59 -0.352336D-01  0.000000D+00 -0.109843D+00 -0.242942D+00 -0.129277D+00
     60  0.167548D-05  0.000000D+00  0.896710D-05  0.624945D-02  0.563504D-02
     61  0.174867D-05  0.000000D+00  0.649823D-05  0.607098D-02  0.612573D-02
     62  0.109232D-04  0.000000D+00  0.378509D-04  0.853551D-02  0.861250D-02
     63  0.000000D+00  0.000000D+00  0.000000D+00  0.000000D+00  0.000000D+00
     64  0.190255D-05  0.000000D+00  0.152520D-04  0.114871D-02 -0.999621D-03
     65  0.000000D+00 -0.237366D-05  0.000000D+00  0.000000D+00  0.000000D+00
     66  0.000000D+00  0.000000D+00  0.000000D+00  0.145172D-02  0.000000D+00
     67  0.000000D+00  0.000000D+00  0.533810D-04  0.109510D-01  0.000000D+00
     68  0.510483D-05  0.000000D+00  0.000000D+00  0.000000D+00  0.433551D-02
     69  0.000000D+00  0.510483D-05  0.000000D+00  0.000000D+00  0.000000D+00
     70  0.000000D+00  0.000000D+00 -0.112620D-03 -0.857327D-02  0.000000D+00
     71  0.000000D+00  0.000000D+00  0.208074D-02  0.326373D-01  0.000000D+00
     72  0.536132D-03  0.000000D+00  0.000000D+00  0.000000D+00  0.264040D-01
     73  0.000000D+00  0.536132D-03  0.000000D+00  0.000000D+00  0.000000D+00
     74  0.000000D+00  0.000000D+00 -0.753923D-02 -0.522126D-01  0.000000D+00
     75  0.000000D+00  0.000000D+00  0.522126D-01  0.141542D+00  0.000000D+00
     76  0.264040D-01  0.000000D+00  0.000000D+00  0.000000D+00  0.141542D+00
     77  0.000000D+00  0.264040D-01  0.000000D+00  0.000000D+00  0.000000D+00
     78  0.000000D+00  0.000000D+00 -0.137532D+00 -0.279893D+00  0.000000D+00
     79  0.000000D+00  0.000000D+00  0.159953D-04  0.794057D-02  0.000000D+00
     80  0.000000D+00  0.000000D+00  0.159953D-04  0.794057D-02  0.000000D+00
     81  0.000000D+00  0.000000D+00  0.931692D-04  0.111641D-01  0.000000D+00
     82  0.000000D+00  0.000000D+00  0.000000D+00  0.000000D+00  0.000000D+00
     83 -0.584271D-05  0.000000D+00  0.000000D+00  0.000000D+00 -0.282347D-02
     84  0.000000D+00 -0.584271D-05  0.000000D+00  0.000000D+00  0.000000D+00
     85  0.000000D+00  0.000000D+00  0.000000D+00  0.165441D-02  0.235514D-02
     86  0.412888D-04  0.154367D-04  0.120736D-03  0.935978D-02  0.111517D-01
     87  0.191026D-04 -0.714190D-05  0.438737D-04  0.967908D-02  0.137834D-01
     88  0.142121D-02 -0.531349D-03  0.326415D-02  0.410450D-01  0.489029D-01
     89  0.000000D+00  0.000000D+00  0.000000D+00  0.270450D-02 -0.114558D-02
     90 -0.328835D-04  0.413214D-04  0.323188D-03  0.141221D-01 -0.500611D-02
     91 -0.281665D-04 -0.353940D-04  0.217430D-03  0.158253D-01 -0.670572D-02
     92 -0.113189D-02 -0.142233D-02  0.873754D-02  0.619290D-01 -0.219530D-01
               31            32            33            34            35
     31  0.100000D+01
     32  0.000000D+00  0.100000D+01
     33  0.000000D+00  0.000000D+00  0.100000D+01
     34  0.000000D+00  0.000000D+00  0.333333D+00  0.100000D+01
     35  0.000000D+00  0.000000D+00  0.333333D+00  0.333333D+00  0.100000D+01
     36  0.000000D+00  0.000000D+00  0.000000D+00  0.000000D+00  0.000000D+00
     37  0.000000D+00  0.000000D+00  0.000000D+00  0.000000D+00  0.000000D+00
     38  0.000000D+00  0.000000D+00  0.000000D+00  0.000000D+00  0.000000D+00
     39  0.109910D+00  0.000000D+00  0.137730D-01  0.451326D-02  0.161797D-02
     40  0.246792D+00  0.000000D+00  0.120267D+00  0.822582D-01  0.703737D-01
     41 -0.109910D+00  0.000000D+00  0.137730D-01  0.451326D-02  0.161797D-02
     42 -0.246792D+00  0.000000D+00  0.120267D+00  0.822582D-01  0.703737D-01
     43  0.179778D+00  0.000000D+00  0.207129D+00  0.361177D+00  0.116021D+00
     44  0.372362D+00  0.000000D+00  0.371459D+00  0.408549D+00  0.349523D+00
     45 -0.179778D+00  0.000000D+00  0.207129D+00  0.361177D+00  0.116021D+00
     46 -0.372362D+00  0.000000D+00  0.371459D+00  0.408549D+00  0.349523D+00
     47  0.000000D+00  0.429530D-02  0.000000D+00  0.000000D+00  0.000000D+00
     48  0.000000D+00  0.307564D-01  0.000000D+00  0.000000D+00  0.000000D+00
     49  0.000000D+00 -0.651916D-02  0.000000D+00  0.000000D+00  0.000000D+00
     50  0.333204D-02  0.000000D+00  0.000000D+00  0.000000D+00  0.000000D+00
     51  0.000000D+00 -0.208938D-01  0.000000D+00  0.000000D+00  0.000000D+00
     52  0.000000D+00  0.818434D-01  0.139889D-05  0.101374D-05  0.633240D-05
     53  0.000000D+00 -0.352336D-01 -0.167548D-05 -0.174867D-05 -0.109232D-04
     54  0.210882D-01  0.000000D+00  0.000000D+00  0.000000D+00  0.000000D+00
     55  0.000000D+00 -0.109843D+00 -0.896710D-05 -0.649823D-05 -0.378509D-04
     56  0.000000D+00  0.242942D+00  0.624945D-02  0.607098D-02  0.853551D-02
     57  0.000000D+00 -0.129277D+00 -0.563504D-02 -0.612573D-02 -0.861250D-02
     58  0.122856D+00  0.000000D+00  0.000000D+00  0.000000D+00  0.000000D+00
     59  0.000000D+00 -0.357551D+00 -0.234330D-01 -0.227638D-01 -0.295122D-01
     60  0.000000D+00  0.234330D-01  0.000000D+00  0.000000D+00  0.000000D+00
     61  0.000000D+00  0.227638D-01  0.000000D+00  0.000000D+00  0.000000D+00
     62  0.000000D+00  0.295122D-01  0.000000D+00  0.000000D+00  0.000000D+00
     63 -0.580902D-03  0.000000D+00  0.000000D+00  0.000000D+00  0.000000D+00
     64  0.000000D+00  0.372630D-02  0.000000D+00  0.000000D+00  0.000000D+00
     65 -0.215869D-02  0.000000D+00  0.000000D+00  0.000000D+00  0.000000D+00
     66  0.000000D+00  0.568561D-02  0.000000D+00  0.000000D+00  0.000000D+00
     67  0.000000D+00  0.399288D-01  0.000000D+00  0.000000D+00  0.000000D+00
     68  0.000000D+00  0.000000D+00  0.000000D+00  0.000000D+00  0.000000D+00
     69  0.433551D-02  0.000000D+00  0.000000D+00  0.000000D+00  0.000000D+00
     70  0.000000D+00 -0.271881D-01  0.000000D+00  0.000000D+00  0.000000D+00
     71  0.000000D+00  0.102474D+00  0.249530D-05  0.249530D-05  0.155871D-04
     72  0.000000D+00  0.000000D+00  0.000000D+00  0.000000D+00  0.000000D+00
     73  0.264040D-01  0.000000D+00  0.000000D+00  0.000000D+00  0.000000D+00
     74  0.000000D+00 -0.137532D+00 -0.159953D-04 -0.159953D-04 -0.931692D-04
     75  0.000000D+00  0.279893D+00  0.794057D-02  0.794057D-02  0.111641D-01
     76  0.000000D+00  0.000000D+00  0.000000D+00  0.000000D+00  0.000000D+00
     77  0.141542D+00  0.000000D+00  0.000000D+00  0.000000D+00  0.000000D+00
     78  0.000000D+00 -0.411932D+00 -0.297741D-01 -0.297741D-01 -0.386007D-01
     79  0.000000D+00  0.297741D-01  0.000000D+00  0.000000D+00  0.000000D+00
     80  0.000000D+00  0.297741D-01  0.000000D+00  0.000000D+00  0.000000D+00
     81  0.000000D+00  0.386007D-01  0.000000D+00  0.000000D+00  0.000000D+00
     82  0.000000D+00  0.000000D+00  0.000000D+00  0.000000D+00  0.000000D+00
     83  0.000000D+00  0.000000D+00  0.000000D+00  0.000000D+00  0.000000D+00
     84 -0.282347D-02  0.000000D+00  0.000000D+00  0.000000D+00  0.000000D+00
     85  0.880519D-03  0.688683D-02  0.000000D+00  0.000000D+00  0.000000D+00
     86  0.416930D-02  0.326095D-01  0.000000D+00  0.000000D+00  0.000000D+00
     87 -0.515323D-02  0.316570D-01  0.000000D+00  0.000000D+00  0.000000D+00
     88 -0.182834D-01  0.112318D+00  0.133949D-04  0.861471D-05  0.371511D-04
     89  0.143954D-02  0.112591D-01  0.000000D+00  0.000000D+00  0.000000D+00
     90  0.629067D-02  0.492015D-01  0.000000D+00  0.000000D+00  0.000000D+00
     91 -0.842640D-02  0.517645D-01  0.000000D+00  0.000000D+00  0.000000D+00
     92 -0.275862D-01  0.169466D+00  0.413718D-04  0.427864D-04  0.184517D-03
               36            37            38            39            40
     36  0.100000D+01
     37  0.000000D+00  0.100000D+01
     38  0.000000D+00  0.000000D+00  0.100000D+01
     39  0.102751D-01  0.000000D+00  0.000000D+00  0.100000D+01
     40  0.421768D-01  0.000000D+00  0.000000D+00  0.658292D+00  0.100000D+01
     41 -0.102751D-01  0.000000D+00  0.000000D+00  0.125798D-01  0.128011D+00
     42 -0.421768D-01  0.000000D+00  0.000000D+00  0.128011D+00  0.365469D+00
     43 -0.258857D+00  0.000000D+00  0.000000D+00  0.571644D-03  0.366357D-01
     44 -0.623253D-01  0.000000D+00  0.000000D+00  0.366357D-01  0.168873D+00
     45  0.258857D+00  0.000000D+00  0.000000D+00  0.104764D-04  0.720595D-02
     46  0.623253D-01  0.000000D+00  0.000000D+00  0.720595D-02  0.617177D-01
     47  0.000000D+00  0.000000D+00  0.000000D+00  0.000000D+00  0.000000D+00
     48  0.000000D+00  0.000000D+00  0.000000D+00  0.000000D+00  0.768895D-05
     49  0.000000D+00  0.000000D+00  0.000000D+00  0.000000D+00  0.186077D-05
     50  0.000000D+00  0.000000D+00  0.000000D+00  0.000000D+00  0.305236D-05
     51  0.000000D+00  0.000000D+00  0.000000D+00  0.000000D+00 -0.163262D-04
     52  0.000000D+00  0.247900D-05  0.000000D+00  0.226477D-05  0.446206D-03
     53  0.000000D+00 -0.190255D-05  0.000000D+00  0.158910D-05  0.192926D-03
     54  0.000000D+00  0.000000D+00  0.237366D-05  0.260672D-05  0.316470D-03
     55  0.000000D+00 -0.152520D-04  0.000000D+00 -0.139426D-04 -0.169271D-02
     56  0.000000D+00  0.114871D-02  0.000000D+00  0.654163D-02  0.295731D-01
     57  0.000000D+00  0.999621D-03  0.000000D+00  0.277141D-02  0.104833D-01
     58  0.580902D-03  0.000000D+00  0.215869D-02  0.454614D-02  0.171965D-01
     59  0.000000D+00 -0.372630D-02  0.000000D+00 -0.243160D-01 -0.919790D-01
     60  0.000000D+00  0.000000D+00  0.000000D+00  0.000000D+00  0.232224D-05
     61  0.000000D+00  0.000000D+00  0.000000D+00  0.000000D+00  0.255412D-05
     62  0.000000D+00  0.000000D+00  0.000000D+00  0.000000D+00  0.127421D-04
     63  0.000000D+00  0.000000D+00  0.000000D+00  0.000000D+00  0.000000D+00
     64  0.000000D+00  0.000000D+00  0.000000D+00  0.000000D+00 -0.208405D-05
     65  0.000000D+00  0.000000D+00  0.000000D+00  0.000000D+00 -0.341863D-05
     66  0.000000D+00  0.000000D+00  0.000000D+00  0.000000D+00  0.000000D+00
     67  0.000000D+00  0.000000D+00  0.000000D+00  0.000000D+00  0.174431D-05
     68  0.000000D+00  0.000000D+00  0.000000D+00  0.000000D+00  0.141044D-05
     69  0.000000D+00  0.000000D+00  0.000000D+00  0.000000D+00  0.000000D+00
     70  0.000000D+00  0.000000D+00  0.000000D+00  0.000000D+00 -0.368190D-05
     71  0.000000D+00  0.000000D+00  0.000000D+00  0.000000D+00  0.166692D-03
     72  0.000000D+00  0.584271D-05  0.000000D+00  0.108052D-05  0.242240D-03
     73  0.000000D+00  0.000000D+00  0.584271D-05  0.000000D+00  0.118226D-03
     74  0.000000D+00  0.000000D+00  0.000000D+00 -0.282065D-05 -0.632356D-03
     75  0.000000D+00  0.000000D+00  0.000000D+00  0.400134D-02  0.196003D-01
     76  0.000000D+00  0.282347D-02  0.000000D+00  0.569708D-02  0.233527D-01
     77  0.000000D+00  0.000000D+00  0.282347D-02  0.278048D-02  0.113974D-01
     78  0.000000D+00  0.000000D+00  0.000000D+00 -0.148720D-01 -0.609614D-01
     79  0.000000D+00  0.000000D+00  0.000000D+00  0.000000D+00  0.000000D+00
     80  0.000000D+00  0.000000D+00  0.000000D+00  0.000000D+00  0.000000D+00
     81  0.000000D+00  0.000000D+00  0.000000D+00  0.000000D+00  0.256552D-05
     82  0.000000D+00  0.000000D+00  0.000000D+00  0.000000D+00  0.000000D+00
     83  0.000000D+00  0.000000D+00  0.000000D+00  0.000000D+00 -0.141032D-05
     84  0.000000D+00  0.000000D+00  0.000000D+00  0.000000D+00  0.000000D+00
     85  0.000000D+00  0.000000D+00  0.000000D+00  0.000000D+00  0.000000D+00
     86  0.000000D+00  0.000000D+00  0.000000D+00  0.000000D+00  0.117714D-03
     87  0.000000D+00  0.000000D+00  0.000000D+00  0.000000D+00  0.231214D-04
     88 -0.359849D-05  0.221060D-04 -0.826481D-05  0.231214D-04  0.173343D-02
     89  0.000000D+00  0.000000D+00  0.000000D+00  0.000000D+00  0.000000D+00
     90  0.000000D+00  0.000000D+00  0.000000D+00  0.000000D+00  0.198786D-04
     91  0.000000D+00  0.000000D+00  0.000000D+00  0.000000D+00  0.133867D-05
     92  0.531755D-05 -0.326664D-04 -0.410486D-04  0.133867D-05  0.292729D-03
               41            42            43            44            45
     41  0.100000D+01
     42  0.658292D+00  0.100000D+01
     43  0.104764D-04  0.720595D-02  0.100000D+01
     44  0.720595D-02  0.617177D-01  0.658292D+00  0.100000D+01
     45  0.571644D-03  0.366357D-01  0.125798D-01  0.128011D+00  0.100000D+01
     46  0.366357D-01  0.168873D+00  0.128011D+00  0.365469D+00  0.658292D+00
     47  0.000000D+00  0.000000D+00  0.000000D+00  0.000000D+00  0.000000D+00
     48  0.000000D+00  0.768895D-05  0.000000D+00  0.174431D-05  0.000000D+00
     49  0.000000D+00  0.186077D-05  0.000000D+00 -0.141044D-05  0.000000D+00
     50  0.000000D+00 -0.305236D-05  0.000000D+00  0.000000D+00  0.000000D+00
     51  0.000000D+00 -0.163262D-04  0.000000D+00 -0.368190D-05  0.000000D+00
     52  0.226477D-05  0.446206D-03  0.000000D+00  0.166692D-03  0.000000D+00
     53  0.158910D-05  0.192926D-03 -0.108052D-05 -0.242240D-03 -0.108052D-05
     54 -0.260672D-05 -0.316470D-03  0.000000D+00  0.118226D-03  0.000000D+00
     55 -0.139426D-04 -0.169271D-02 -0.282065D-05 -0.632356D-03 -0.282065D-05
     56  0.654163D-02  0.295731D-01  0.400134D-02  0.196003D-01  0.400134D-02
     57  0.277141D-02  0.104833D-01 -0.569708D-02 -0.233527D-01 -0.569708D-02
     58 -0.454614D-02 -0.171965D-01  0.278048D-02  0.113974D-01 -0.278048D-02
     59 -0.243160D-01 -0.919790D-01 -0.148720D-01 -0.609614D-01 -0.148720D-01
     60  0.000000D+00  0.232224D-05  0.000000D+00  0.000000D+00  0.000000D+00
     61  0.000000D+00  0.255412D-05  0.000000D+00  0.000000D+00  0.000000D+00
     62  0.000000D+00  0.127421D-04  0.000000D+00  0.256552D-05  0.000000D+00
     63  0.000000D+00  0.000000D+00  0.000000D+00  0.000000D+00  0.000000D+00
     64  0.000000D+00 -0.208405D-05  0.000000D+00  0.141032D-05  0.000000D+00
     65  0.000000D+00  0.341863D-05  0.000000D+00  0.000000D+00  0.000000D+00
     66  0.000000D+00  0.000000D+00  0.000000D+00  0.000000D+00  0.000000D+00
     67  0.000000D+00  0.174431D-05  0.000000D+00  0.768895D-05  0.000000D+00
     68  0.000000D+00  0.141044D-05  0.000000D+00 -0.186077D-05  0.000000D+00
     69  0.000000D+00  0.000000D+00  0.000000D+00  0.305236D-05  0.000000D+00
     70  0.000000D+00 -0.368190D-05  0.000000D+00 -0.163262D-04  0.000000D+00
     71  0.000000D+00  0.166692D-03  0.226477D-05  0.446206D-03  0.226477D-05
     72  0.108052D-05  0.242240D-03 -0.158910D-05 -0.192926D-03 -0.158910D-05
     73  0.000000D+00 -0.118226D-03  0.260672D-05  0.316470D-03 -0.260672D-05
     74 -0.282065D-05 -0.632356D-03 -0.139426D-04 -0.169271D-02 -0.139426D-04
     75  0.400134D-02  0.196003D-01  0.654163D-02  0.295731D-01  0.654163D-02
     76  0.569708D-02  0.233527D-01 -0.277141D-02 -0.104833D-01 -0.277141D-02
     77 -0.278048D-02 -0.113974D-01  0.454614D-02  0.171965D-01 -0.454614D-02
     78 -0.148720D-01 -0.609614D-01 -0.243160D-01 -0.919790D-01 -0.243160D-01
     79  0.000000D+00  0.000000D+00  0.000000D+00  0.232224D-05  0.000000D+00
     80  0.000000D+00  0.000000D+00  0.000000D+00  0.255412D-05  0.000000D+00
     81  0.000000D+00  0.256552D-05  0.000000D+00  0.127421D-04  0.000000D+00
     82  0.000000D+00  0.000000D+00  0.000000D+00  0.000000D+00  0.000000D+00
     83  0.000000D+00 -0.141032D-05  0.000000D+00  0.208405D-05  0.000000D+00
     84  0.000000D+00  0.000000D+00  0.000000D+00 -0.341863D-05  0.000000D+00
     85  0.000000D+00  0.000000D+00  0.000000D+00  0.000000D+00  0.000000D+00
     86  0.000000D+00  0.544443D-04  0.000000D+00  0.198786D-04  0.000000D+00
     87  0.000000D+00  0.796294D-04  0.000000D+00  0.133867D-05  0.000000D+00
     88  0.796294D-04  0.374785D-02  0.133867D-05  0.292729D-03  0.460137D-05
     89  0.000000D+00  0.000000D+00  0.000000D+00  0.000000D+00  0.000000D+00
     90  0.000000D+00  0.919414D-05  0.000000D+00  0.117714D-03  0.000000D+00
     91  0.000000D+00  0.460137D-05  0.000000D+00  0.231214D-04  0.000000D+00
     92  0.460137D-05  0.632909D-03  0.231214D-04  0.173343D-02  0.796294D-04
               46            47            48            49            50
     46  0.100000D+01
     47  0.000000D+00  0.100000D+01
     48  0.174431D-05  0.219059D+00  0.100000D+01
     49 -0.141044D-05  0.000000D+00  0.000000D+00  0.100000D+01
     50  0.000000D+00  0.000000D+00  0.000000D+00  0.000000D+00  0.100000D+01
     51 -0.368190D-05  0.000000D+00  0.000000D+00  0.000000D+00  0.000000D+00
     52  0.166692D-03  0.184261D+00  0.812273D+00  0.000000D+00  0.000000D+00
     53 -0.242240D-03  0.000000D+00  0.000000D+00  0.569754D+00  0.000000D+00
     54 -0.118226D-03  0.000000D+00  0.000000D+00  0.000000D+00  0.569754D+00
     55 -0.632356D-03  0.000000D+00  0.000000D+00  0.000000D+00  0.000000D+00
     56  0.196003D-01  0.697718D-01  0.402091D+00  0.000000D+00  0.000000D+00
     57 -0.233527D-01  0.000000D+00  0.000000D+00  0.164679D+00  0.000000D+00
     58 -0.113974D-01  0.000000D+00  0.000000D+00  0.000000D+00  0.164679D+00
     59 -0.609614D-01  0.000000D+00  0.000000D+00  0.000000D+00  0.000000D+00
     60  0.000000D+00  0.791027D-01  0.710235D+00  0.000000D+00  0.000000D+00
     61  0.000000D+00  0.791027D-01  0.710235D+00  0.000000D+00  0.000000D+00
     62  0.256552D-05  0.791027D-01  0.710235D+00  0.000000D+00  0.000000D+00
     63  0.000000D+00  0.000000D+00  0.000000D+00  0.000000D+00  0.000000D+00
     64  0.141032D-05  0.000000D+00  0.000000D+00  0.000000D+00  0.000000D+00
     65  0.000000D+00  0.000000D+00  0.000000D+00  0.000000D+00  0.000000D+00
     66  0.000000D+00  0.481399D-05  0.194904D-01 -0.426713D-01  0.000000D+00
     67  0.768895D-05  0.194904D-01  0.203366D+00 -0.282219D+00  0.000000D+00
     68 -0.186077D-05  0.426713D-01  0.282219D+00 -0.333594D+00  0.000000D+00
     69 -0.305236D-05  0.000000D+00  0.000000D+00  0.000000D+00  0.115814D+00
     70 -0.163262D-04  0.000000D+00  0.000000D+00  0.000000D+00  0.000000D+00
     71  0.446206D-03  0.643636D-01  0.359351D+00 -0.253511D+00  0.000000D+00
     72 -0.192926D-03  0.129620D+00  0.562375D+00 -0.170740D+00  0.000000D+00
     73 -0.316470D-03  0.000000D+00  0.000000D+00  0.000000D+00  0.242739D+00
     74 -0.169271D-02  0.000000D+00  0.000000D+00  0.000000D+00  0.000000D+00
     75  0.295731D-01  0.527094D-01  0.309785D+00 -0.673317D-01  0.000000D+00
     76 -0.104833D-01  0.555561D-01  0.303665D+00  0.598522D-01  0.000000D+00
     77 -0.171965D-01  0.000000D+00  0.000000D+00  0.000000D+00  0.126532D+00
     78 -0.919790D-01  0.000000D+00  0.000000D+00  0.000000D+00  0.000000D+00
     79  0.232224D-05  0.526767D-01  0.334402D+00 -0.413876D+00  0.000000D+00
     80  0.255412D-05  0.113280D-02  0.928256D-01 -0.142160D+00  0.000000D+00
     81  0.127421D-04  0.113280D-02  0.928256D-01 -0.142160D+00  0.000000D+00
     82  0.000000D+00  0.000000D+00  0.000000D+00  0.000000D+00  0.183392D+00
     83  0.208405D-05  0.000000D+00  0.000000D+00  0.000000D+00  0.000000D+00
     84  0.341863D-05  0.000000D+00  0.000000D+00  0.000000D+00  0.000000D+00
     85  0.000000D+00  0.320525D-01  0.270664D+00  0.190665D+00  0.239590D+00
     86  0.919414D-05  0.916644D-01  0.473962D+00  0.138279D+00  0.173762D+00
     87  0.460137D-05  0.320525D-01  0.270664D+00  0.190665D+00 -0.239590D+00
     88  0.632909D-03  0.916644D-01  0.473962D+00  0.138279D+00 -0.173762D+00
     89  0.000000D+00  0.430532D-04  0.789566D-02 -0.152645D-01  0.570697D-02
     90  0.544443D-04  0.142782D-01  0.109874D+00 -0.102096D+00  0.381710D-01
     91  0.796294D-04  0.430532D-04  0.789566D-02 -0.152645D-01 -0.570697D-02
     92  0.374785D-02  0.142782D-01  0.109874D+00 -0.102096D+00 -0.381710D-01
               51            52            53            54            55
     51  0.100000D+01
     52  0.000000D+00  0.100000D+01
     53  0.000000D+00  0.000000D+00  0.100000D+01
     54  0.000000D+00  0.000000D+00  0.000000D+00  0.100000D+01
     55  0.569754D+00  0.000000D+00  0.000000D+00  0.000000D+00  0.100000D+01
     56  0.000000D+00  0.727666D+00  0.000000D+00  0.000000D+00  0.000000D+00
     57  0.000000D+00  0.000000D+00  0.588690D+00  0.000000D+00  0.000000D+00
     58  0.000000D+00  0.000000D+00  0.000000D+00  0.588690D+00  0.000000D+00
     59  0.164679D+00  0.000000D+00  0.000000D+00  0.000000D+00  0.588690D+00
     60  0.000000D+00  0.629936D+00  0.000000D+00  0.000000D+00  0.000000D+00
     61  0.000000D+00  0.629936D+00  0.000000D+00  0.000000D+00  0.000000D+00
     62  0.000000D+00  0.629936D+00  0.000000D+00  0.000000D+00  0.000000D+00
     63  0.000000D+00  0.000000D+00  0.000000D+00  0.000000D+00  0.000000D+00
     64  0.000000D+00  0.000000D+00  0.000000D+00  0.000000D+00  0.000000D+00
     65  0.000000D+00  0.000000D+00  0.000000D+00  0.000000D+00  0.000000D+00
     66  0.000000D+00  0.643636D-01 -0.129620D+00  0.000000D+00  0.000000D+00
     67  0.000000D+00  0.359351D+00 -0.562375D+00  0.000000D+00  0.000000D+00
     68  0.000000D+00  0.253511D+00 -0.170740D+00  0.000000D+00  0.000000D+00
     69  0.000000D+00  0.000000D+00  0.000000D+00  0.242739D+00  0.000000D+00
     70  0.115814D+00  0.000000D+00  0.000000D+00  0.000000D+00  0.242739D+00
     71  0.000000D+00  0.579631D+00 -0.605354D+00  0.000000D+00  0.000000D+00
     72  0.000000D+00  0.605354D+00 -0.525884D-01  0.000000D+00  0.000000D+00
     73  0.000000D+00  0.000000D+00  0.000000D+00  0.579631D+00  0.000000D+00
     74  0.242739D+00  0.000000D+00  0.000000D+00  0.000000D+00  0.579631D+00
     75  0.000000D+00  0.581168D+00 -0.250193D+00  0.000000D+00  0.000000D+00
     76  0.000000D+00  0.491037D+00  0.258780D+00  0.000000D+00  0.000000D+00
     77  0.000000D+00  0.000000D+00  0.000000D+00  0.470171D+00  0.000000D+00
     78  0.126532D+00  0.000000D+00  0.000000D+00  0.000000D+00  0.470171D+00
     79  0.000000D+00  0.353148D+00 -0.422973D+00  0.000000D+00  0.000000D+00
     80  0.000000D+00  0.255918D+00 -0.441451D+00  0.000000D+00  0.000000D+00
     81  0.000000D+00  0.255918D+00 -0.441451D+00  0.000000D+00  0.000000D+00
     82  0.000000D+00  0.000000D+00  0.000000D+00  0.161252D+00  0.000000D+00
     83  0.183392D+00  0.000000D+00  0.000000D+00  0.000000D+00  0.161252D+00
     84  0.000000D+00  0.000000D+00  0.000000D+00  0.000000D+00  0.000000D+00
     85  0.201040D+00  0.375116D+00  0.267879D+00  0.336616D+00  0.282455D+00
     86  0.145804D+00  0.702351D+00  0.303675D+00  0.381598D+00  0.320198D+00
     87 -0.201040D+00  0.375116D+00  0.267879D+00 -0.336616D+00 -0.282455D+00
     88 -0.145804D+00  0.702351D+00  0.303675D+00 -0.381598D+00 -0.320198D+00
     89  0.478872D-02  0.740737D-01 -0.176933D+00  0.661504D-01  0.555068D-01
     90  0.320293D-01  0.262382D+00 -0.381297D+00  0.142556D+00  0.119619D+00
     91 -0.478872D-02  0.740737D-01 -0.176933D+00 -0.661504D-01 -0.555068D-01
     92 -0.320293D-01  0.262382D+00 -0.381297D+00 -0.142556D+00 -0.119619D+00
               56            57            58            59            60
     56  0.100000D+01
     57  0.000000D+00  0.100000D+01
     58  0.000000D+00  0.000000D+00  0.100000D+01
     59  0.000000D+00  0.000000D+00  0.000000D+00  0.100000D+01
     60  0.323540D+00  0.000000D+00  0.000000D+00  0.000000D+00  0.100000D+01
     61  0.323540D+00  0.000000D+00  0.000000D+00  0.000000D+00  0.333333D+00
     62  0.323540D+00  0.000000D+00  0.000000D+00  0.000000D+00  0.333333D+00
     63  0.000000D+00  0.000000D+00  0.000000D+00  0.000000D+00  0.000000D+00
     64  0.000000D+00  0.000000D+00  0.000000D+00  0.000000D+00  0.000000D+00
     65  0.000000D+00  0.000000D+00  0.000000D+00  0.000000D+00  0.000000D+00
     66  0.527094D-01 -0.555561D-01  0.000000D+00  0.000000D+00  0.526767D-01
     67  0.309785D+00 -0.303665D+00  0.000000D+00  0.000000D+00  0.334402D+00
     68  0.673317D-01  0.598522D-01  0.000000D+00  0.000000D+00  0.413876D+00
     69  0.000000D+00  0.000000D+00  0.126532D+00  0.000000D+00  0.000000D+00
     70  0.000000D+00  0.000000D+00  0.000000D+00  0.126532D+00  0.000000D+00
     71  0.581168D+00 -0.491037D+00  0.000000D+00  0.000000D+00  0.353148D+00
     72  0.250193D+00  0.258780D+00  0.000000D+00  0.000000D+00  0.422973D+00
     73  0.000000D+00  0.000000D+00  0.470171D+00  0.000000D+00  0.000000D+00
     74  0.000000D+00  0.000000D+00  0.000000D+00  0.470171D+00  0.000000D+00
     75  0.867984D+00 -0.461882D+00  0.000000D+00  0.000000D+00  0.254635D+00
     76  0.461882D+00  0.622202D+00  0.000000D+00  0.000000D+00  0.229601D+00
     77  0.000000D+00  0.000000D+00  0.867984D+00  0.000000D+00  0.000000D+00
     78  0.000000D+00  0.000000D+00  0.000000D+00  0.867984D+00  0.000000D+00
     79  0.254635D+00 -0.229601D+00  0.000000D+00  0.000000D+00  0.487216D+00
     80  0.247363D+00 -0.249594D+00  0.000000D+00  0.000000D+00  0.154963D+00
     81  0.247363D+00 -0.249594D+00  0.000000D+00  0.000000D+00  0.154963D+00
     82  0.000000D+00  0.000000D+00  0.236690D-01  0.000000D+00  0.000000D+00
     83  0.000000D+00  0.000000D+00  0.000000D+00  0.236690D-01  0.000000D+00
     84  0.000000D+00  0.000000D+00  0.000000D+00  0.000000D+00  0.000000D+00
     85  0.258482D+00  0.109596D+00  0.137718D+00  0.115559D+00  0.207129D+00
     86  0.640357D+00  0.226998D+00  0.285246D+00  0.239350D+00  0.371459D+00
     87  0.258482D+00  0.109596D+00 -0.137718D+00 -0.115559D+00  0.207129D+00
     88  0.640357D+00  0.226998D+00 -0.285246D+00 -0.239350D+00  0.371459D+00
     89  0.158045D+00 -0.225200D+00  0.841958D-01  0.706487D-01  0.137730D-01
     90  0.424412D+00 -0.505665D+00  0.189054D+00  0.158635D+00  0.120267D+00
     91  0.158045D+00 -0.225200D+00 -0.841958D-01 -0.706487D-01  0.137730D-01
     92  0.424412D+00 -0.505665D+00 -0.189054D+00 -0.158635D+00  0.120267D+00
               61            62            63            64            65
     61  0.100000D+01
     62  0.333333D+00  0.100000D+01
     63  0.000000D+00  0.000000D+00  0.100000D+01
     64  0.000000D+00  0.000000D+00  0.000000D+00  0.100000D+01
     65  0.000000D+00  0.000000D+00  0.000000D+00  0.000000D+00  0.100000D+01
     66  0.113280D-02  0.113280D-02  0.000000D+00  0.000000D+00  0.000000D+00
     67  0.928256D-01  0.928256D-01  0.000000D+00  0.000000D+00  0.000000D+00
     68  0.142160D+00  0.142160D+00  0.000000D+00  0.000000D+00  0.000000D+00
     69  0.000000D+00  0.000000D+00 -0.183392D+00  0.000000D+00  0.000000D+00
     70  0.000000D+00  0.000000D+00  0.000000D+00 -0.183392D+00  0.000000D+00
     71  0.255918D+00  0.255918D+00  0.000000D+00  0.000000D+00  0.000000D+00
     72  0.441451D+00  0.441451D+00  0.000000D+00  0.000000D+00  0.000000D+00
     73  0.000000D+00  0.000000D+00 -0.161252D+00  0.000000D+00  0.000000D+00
     74  0.000000D+00  0.000000D+00  0.000000D+00 -0.161252D+00  0.000000D+00
     75  0.247363D+00  0.247363D+00  0.000000D+00  0.000000D+00  0.000000D+00
     76  0.249594D+00  0.249594D+00  0.000000D+00  0.000000D+00  0.000000D+00
     77  0.000000D+00  0.000000D+00 -0.236690D-01  0.000000D+00  0.000000D+00
     78  0.000000D+00  0.000000D+00  0.000000D+00 -0.236690D-01  0.000000D+00
     79  0.154963D+00  0.154963D+00  0.000000D+00  0.000000D+00  0.000000D+00
     80  0.753228D-01  0.251076D-01  0.000000D+00  0.000000D+00  0.000000D+00
     81  0.251076D-01  0.753228D-01  0.000000D+00  0.000000D+00  0.000000D+00
     82  0.000000D+00  0.000000D+00 -0.314243D+00  0.000000D+00  0.000000D+00
     83  0.000000D+00  0.000000D+00  0.000000D+00 -0.314243D+00  0.000000D+00
     84  0.000000D+00  0.000000D+00  0.000000D+00  0.000000D+00  0.753228D-01
     85  0.259885D+00  0.217314D+00  0.198296D+00  0.166390D+00  0.209086D+00
     86  0.384161D+00  0.373911D+00  0.477440D-01  0.400620D-01  0.503418D-01
     87  0.259885D+00  0.217314D+00 -0.198296D+00 -0.166390D+00  0.209086D+00
     88  0.384161D+00  0.373911D+00 -0.477440D-01 -0.400620D-01  0.503418D-01
     89  0.331699D-02  0.281423D-02 -0.787115D-02 -0.660468D-02  0.246930D-02
     90  0.773478D-01  0.752841D-01 -0.323093D-01 -0.271107D-01  0.101359D-01
     91  0.331699D-02  0.281423D-02  0.787115D-02  0.660468D-02  0.246930D-02
     92  0.773478D-01  0.752841D-01  0.323093D-01  0.271107D-01  0.101359D-01
               66            67            68            69            70
     66  0.100000D+01
     67  0.219059D+00  0.100000D+01
     68  0.000000D+00  0.000000D+00  0.100000D+01
     69  0.000000D+00  0.000000D+00  0.000000D+00  0.100000D+01
     70  0.000000D+00  0.000000D+00  0.000000D+00  0.000000D+00  0.100000D+01
     71  0.184261D+00  0.812273D+00  0.000000D+00  0.000000D+00  0.000000D+00
     72  0.000000D+00  0.000000D+00  0.569754D+00  0.000000D+00  0.000000D+00
     73  0.000000D+00  0.000000D+00  0.000000D+00  0.569754D+00  0.000000D+00
     74  0.000000D+00  0.000000D+00  0.000000D+00  0.000000D+00  0.569754D+00
     75  0.697718D-01  0.402091D+00  0.000000D+00  0.000000D+00  0.000000D+00
     76  0.000000D+00  0.000000D+00  0.164679D+00  0.000000D+00  0.000000D+00
     77  0.000000D+00  0.000000D+00  0.000000D+00  0.164679D+00  0.000000D+00
     78  0.000000D+00  0.000000D+00  0.000000D+00  0.000000D+00  0.164679D+00
     79  0.791027D-01  0.710235D+00  0.000000D+00  0.000000D+00  0.000000D+00
     80  0.791027D-01  0.710235D+00  0.000000D+00  0.000000D+00  0.000000D+00
     81  0.791027D-01  0.710235D+00  0.000000D+00  0.000000D+00  0.000000D+00
     82  0.000000D+00  0.000000D+00  0.000000D+00  0.000000D+00  0.000000D+00
     83  0.000000D+00  0.000000D+00  0.000000D+00  0.000000D+00  0.000000D+00
     84  0.000000D+00  0.000000D+00  0.000000D+00  0.000000D+00  0.000000D+00
     85  0.430532D-04  0.789566D-02  0.152645D-01  0.570697D-02  0.478872D-02
     86  0.142782D-01  0.109874D+00  0.102096D+00  0.381710D-01  0.320293D-01
     87  0.430532D-04  0.789566D-02  0.152645D-01 -0.570697D-02 -0.478872D-02
     88  0.142782D-01  0.109874D+00  0.102096D+00 -0.381710D-01 -0.320293D-01
     89  0.320525D-01  0.270664D+00 -0.190665D+00  0.239590D+00  0.201040D+00
     90  0.916644D-01  0.473962D+00 -0.138279D+00  0.173762D+00  0.145804D+00
     91  0.320525D-01  0.270664D+00 -0.190665D+00 -0.239590D+00 -0.201040D+00
     92  0.916644D-01  0.473962D+00 -0.138279D+00 -0.173762D+00 -0.145804D+00
               71            72            73            74            75
     71  0.100000D+01
     72  0.000000D+00  0.100000D+01
     73  0.000000D+00  0.000000D+00  0.100000D+01
     74  0.000000D+00  0.000000D+00  0.000000D+00  0.100000D+01
     75  0.727666D+00  0.000000D+00  0.000000D+00  0.000000D+00  0.100000D+01
     76  0.000000D+00  0.588690D+00  0.000000D+00  0.000000D+00  0.000000D+00
     77  0.000000D+00  0.000000D+00  0.588690D+00  0.000000D+00  0.000000D+00
     78  0.000000D+00  0.000000D+00  0.000000D+00  0.588690D+00  0.000000D+00
     79  0.629936D+00  0.000000D+00  0.000000D+00  0.000000D+00  0.323540D+00
     80  0.629936D+00  0.000000D+00  0.000000D+00  0.000000D+00  0.323540D+00
     81  0.629936D+00  0.000000D+00  0.000000D+00  0.000000D+00  0.323540D+00
     82  0.000000D+00  0.000000D+00  0.000000D+00  0.000000D+00  0.000000D+00
     83  0.000000D+00  0.000000D+00  0.000000D+00  0.000000D+00  0.000000D+00
     84  0.000000D+00  0.000000D+00  0.000000D+00  0.000000D+00  0.000000D+00
     85  0.740737D-01  0.176933D+00  0.661504D-01  0.555068D-01  0.158045D+00
     86  0.262382D+00  0.381297D+00  0.142556D+00  0.119619D+00  0.424412D+00
     87  0.740737D-01  0.176933D+00 -0.661504D-01 -0.555068D-01  0.158045D+00
     88  0.262382D+00  0.381297D+00 -0.142556D+00 -0.119619D+00  0.424412D+00
     89  0.375116D+00 -0.267879D+00  0.336616D+00  0.282455D+00  0.258482D+00
     90  0.702351D+00 -0.303675D+00  0.381598D+00  0.320198D+00  0.640357D+00
     91  0.375116D+00 -0.267879D+00 -0.336616D+00 -0.282455D+00  0.258482D+00
     92  0.702351D+00 -0.303675D+00 -0.381598D+00 -0.320198D+00  0.640357D+00
               76            77            78            79            80
     76  0.100000D+01
     77  0.000000D+00  0.100000D+01
     78  0.000000D+00  0.000000D+00  0.100000D+01
     79  0.000000D+00  0.000000D+00  0.000000D+00  0.100000D+01
     80  0.000000D+00  0.000000D+00  0.000000D+00  0.333333D+00  0.100000D+01
     81  0.000000D+00  0.000000D+00  0.000000D+00  0.333333D+00  0.333333D+00
     82  0.000000D+00  0.000000D+00  0.000000D+00  0.000000D+00  0.000000D+00
     83  0.000000D+00  0.000000D+00  0.000000D+00  0.000000D+00  0.000000D+00
     84  0.000000D+00  0.000000D+00  0.000000D+00  0.000000D+00  0.000000D+00
     85  0.225200D+00  0.841958D-01  0.706487D-01  0.137730D-01  0.331699D-02
     86  0.505665D+00  0.189054D+00  0.158635D+00  0.120267D+00  0.773478D-01
     87  0.225200D+00 -0.841958D-01 -0.706487D-01  0.137730D-01  0.331699D-02
     88  0.505665D+00 -0.189054D+00 -0.158635D+00  0.120267D+00  0.773478D-01
     89 -0.109596D+00  0.137718D+00  0.115559D+00  0.207129D+00  0.259885D+00
     90 -0.226998D+00  0.285246D+00  0.239350D+00  0.371459D+00  0.384161D+00
     91 -0.109596D+00 -0.137718D+00 -0.115559D+00  0.207129D+00  0.259885D+00
     92 -0.226998D+00 -0.285246D+00 -0.239350D+00  0.371459D+00  0.384161D+00
               81            82            83            84            85
     81  0.100000D+01
     82  0.000000D+00  0.100000D+01
     83  0.000000D+00  0.000000D+00  0.100000D+01
     84  0.000000D+00  0.000000D+00  0.000000D+00  0.100000D+01
     85  0.281423D-02  0.787115D-02  0.660468D-02  0.246930D-02  0.100000D+01
     86  0.752841D-01  0.323093D-01  0.271107D-01  0.101359D-01  0.658292D+00
     87  0.281423D-02 -0.787115D-02 -0.660468D-02  0.246930D-02  0.125798D-01
     88  0.752841D-01 -0.323093D-01 -0.271107D-01  0.101359D-01  0.128011D+00
     89  0.217314D+00 -0.198296D+00 -0.166390D+00  0.209086D+00  0.571644D-03
     90  0.373911D+00 -0.477440D-01 -0.400620D-01  0.503418D-01  0.366357D-01
     91  0.217314D+00  0.198296D+00  0.166390D+00  0.209086D+00  0.104764D-04
     92  0.373911D+00  0.477440D-01  0.400620D-01  0.503418D-01  0.720594D-02
               86            87            88            89            90
     86  0.100000D+01
     87  0.128011D+00  0.100000D+01
     88  0.365469D+00  0.658292D+00  0.100000D+01
     89  0.366357D-01  0.104764D-04  0.720594D-02  0.100000D+01
     90  0.168873D+00  0.720594D-02  0.617177D-01  0.658292D+00  0.100000D+01
     91  0.720594D-02  0.571644D-03  0.366357D-01  0.125798D-01  0.128011D+00
     92  0.617177D-01  0.366357D-01  0.168873D+00  0.128011D+00  0.365469D+00
               91            92
     91  0.100000D+01
     92  0.658292D+00  0.100000D+01
 *** Kinetic Energy *** 
                1             2             3             4             5
      1  0.162076D+02
      2 -0.124757D+01  0.932246D+00
      3  0.000000D+00  0.000000D+00  0.217833D+01
      4  0.000000D+00  0.000000D+00  0.000000D+00  0.217833D+01
      5  0.000000D+00  0.000000D+00  0.000000D+00  0.000000D+00  0.217833D+01
      6  0.899505D-01  0.306718D+00  0.000000D+00  0.000000D+00  0.000000D+00
      7  0.000000D+00  0.000000D+00  0.376673D+00  0.000000D+00  0.000000D+00
      8  0.000000D+00  0.000000D+00  0.000000D+00  0.376673D+00  0.000000D+00
      9  0.000000D+00  0.000000D+00  0.000000D+00  0.000000D+00  0.376673D+00
     10  0.907972D-02  0.486595D-01  0.000000D+00  0.000000D+00  0.000000D+00
     11  0.000000D+00  0.000000D+00  0.335613D-01  0.000000D+00  0.000000D+00
     12  0.000000D+00  0.000000D+00  0.000000D+00  0.335613D-01  0.000000D+00
[...]
     57 0.000000D+00-0.109612D-02 0.510870D-03 0.510870D-03-0.101774D-02
     58 0.000000D+00 0.000000D+00 0.838018D-03-0.838018D-03 0.496713D-03
     59-0.540658D-02-0.407330D-02-0.448231D-02-0.448231D-02-0.265677D-02
     60 0.000000D+00 0.000000D+00 0.000000D+00 0.000000D+00 0.000000D+00
     61 0.000000D+00 0.000000D+00 0.000000D+00 0.000000D+00 0.000000D+00
     62 0.000000D+00 0.000000D+00 0.000000D+00 0.000000D+00 0.000000D+00
     63 0.000000D+00 0.000000D+00 0.000000D+00 0.000000D+00 0.000000D+00
     64 0.000000D+00 0.000000D+00 0.000000D+00 0.000000D+00 0.000000D+00
     65 0.000000D+00 0.000000D+00 0.000000D+00 0.000000D+00 0.000000D+00
     66 0.000000D+00 0.000000D+00 0.000000D+00 0.000000D+00 0.000000D+00
     67 0.000000D+00 0.000000D+00 0.000000D+00 0.000000D+00 0.000000D+00
     68 0.000000D+00 0.000000D+00 0.000000D+00 0.000000D+00 0.000000D+00
     69 0.000000D+00 0.000000D+00 0.000000D+00 0.000000D+00 0.000000D+00
     70 0.000000D+00 0.000000D+00 0.000000D+00 0.000000D+00 0.000000D+00
     71 0.000000D+00 0.000000D+00 0.000000D+00 0.000000D+00 0.000000D+00
     72 0.000000D+00 0.000000D+00 0.000000D+00 0.000000D+00 0.000000D+00
     73 0.000000D+00 0.000000D+00 0.000000D+00 0.000000D+00 0.000000D+00
     74 0.000000D+00 0.000000D+00 0.000000D+00 0.000000D+00 0.000000D+00
     75 0.102994D-02 0.136706D-02 0.671766D-03 0.671766D-03 0.113335D-02
     76 0.109612D-02 0.000000D+00 0.101774D-02 0.101774D-02-0.510870D-03
     77 0.000000D+00 0.000000D+00 0.496713D-03-0.496713D-03 0.838018D-03
     78-0.407330D-02-0.540658D-02-0.265677D-02-0.265677D-02-0.448231D-02
     79 0.000000D+00 0.000000D+00 0.000000D+00 0.000000D+00 0.000000D+00
     80 0.000000D+00 0.000000D+00 0.000000D+00 0.000000D+00 0.000000D+00
     81 0.000000D+00 0.000000D+00 0.000000D+00 0.000000D+00 0.000000D+00
     82 0.000000D+00 0.000000D+00 0.000000D+00 0.000000D+00 0.000000D+00
     83 0.000000D+00 0.000000D+00 0.000000D+00 0.000000D+00 0.000000D+00
     84 0.000000D+00 0.000000D+00 0.000000D+00 0.000000D+00 0.000000D+00
     85 0.000000D+00 0.000000D+00 0.000000D+00 0.000000D+00 0.000000D+00
     86 0.000000D+00 0.000000D+00 0.000000D+00 0.000000D+00 0.000000D+00
     87 0.000000D+00 0.000000D+00 0.000000D+00 0.000000D+00 0.000000D+00
     88 0.161668D-05 0.000000D+00 0.000000D+00 0.254774D-05 0.000000D+00
     89 0.000000D+00 0.000000D+00 0.000000D+00 0.000000D+00 0.000000D+00
     90 0.000000D+00 0.000000D+00 0.000000D+00 0.000000D+00 0.000000D+00
     91 0.000000D+00 0.000000D+00 0.000000D+00 0.000000D+00 0.000000D+00
     92 0.000000D+00 0.161668D-05 0.000000D+00 0.000000D+00 0.000000D+00
               6            7            8            9           10
      1 0.000000D+00 0.000000D+00 0.000000D+00 0.000000D+00 0.000000D+00
      2 0.756427D-04 0.000000D+00 0.000000D+00 0.000000D+00 0.000000D+00
      3-0.262955D-03 0.000000D+00 0.000000D+00 0.000000D+00 0.000000D+00
      4-0.128336D-03 0.000000D+00 0.000000D+00 0.000000D+00 0.000000D+00
      5 0.000000D+00 0.000000D+00 0.000000D+00 0.000000D+00 0.000000D+00
      6 0.121531D-01 0.000000D+00 0.000000D+00 0.000000D+00 0.000000D+00
      7-0.361366D-01 0.000000D+00 0.000000D+00 0.000000D+00 0.000000D+00
      8-0.176366D-01 0.000000D+00 0.000000D+00 0.000000D+00-0.108750D-05
      9 0.000000D+00 0.000000D+00 0.000000D+00 0.000000D+00 0.668064D-05
     10 0.335310D-01 0.136706D-02 0.102994D-02 0.442784D-03 0.290095D-02
     11-0.508002D-01 0.000000D+00-0.109612D-02 0.199589D-03 0.130763D-02
     12-0.247933D-01 0.000000D+00 0.000000D+00 0.250803D-03-0.164317D-02
     13 0.000000D+00 0.540658D-02 0.407330D-02 0.196162D-02 0.100942D-01
     14 0.337410D-04 0.000000D+00 0.000000D+00 0.000000D+00 0.000000D+00
     15 0.803701D-05 0.000000D+00 0.000000D+00 0.000000D+00 0.000000D+00
     16 0.000000D+00 0.000000D+00 0.000000D+00 0.000000D+00 0.000000D+00
     17 0.285225D-04 0.000000D+00 0.000000D+00 0.000000D+00 0.000000D+00
     18 0.000000D+00 0.000000D+00 0.000000D+00 0.000000D+00 0.000000D+00
     19 0.000000D+00 0.000000D+00 0.000000D+00 0.000000D+00 0.000000D+00
     20 0.000000D+00 0.000000D+00 0.000000D+00 0.000000D+00 0.000000D+00
     21 0.502054D-01 0.000000D+00 0.000000D+00 0.000000D+00 0.000000D+00
     22-0.523278D-01 0.000000D+00 0.000000D+00 0.000000D+00 0.000000D+00
     23-0.858372D-01 0.000000D+00 0.000000D+00 0.000000D+00 0.000000D+00
     24 0.000000D+00 0.000000D+00 0.000000D+00 0.000000D+00 0.000000D+00
     25 0.911268D-01 0.000000D+00 0.000000D+00 0.000000D+00 0.000000D+00
     26-0.806176D-01 0.000000D+00 0.000000D+00 0.000000D+00 0.000000D+00
     27-0.132243D+00 0.000000D+00 0.000000D+00 0.000000D+00 0.000000D+00
     28 0.000000D+00 0.000000D+00 0.000000D+00 0.000000D+00 0.000000D+00
     29 0.565711D-01 0.102994D-02 0.136706D-02 0.262448D-03 0.171946D-02
     30-0.254999D-01 0.109612D-02 0.000000D+00 0.397615D-03 0.260502D-02
     31-0.418294D-01 0.000000D+00 0.000000D+00 0.148657D-03-0.973943D-03
     32 0.000000D+00 0.407330D-02 0.540658D-02 0.116270D-02 0.598306D-02
     33 0.420754D-01 0.000000D+00 0.000000D+00 0.000000D+00 0.000000D+00
     34 0.113217D+00 0.000000D+00 0.000000D+00 0.000000D+00 0.000000D+00
     35 0.000000D+00 0.000000D+00 0.000000D+00 0.000000D+00 0.000000D+00
     36 0.119545D+00 0.000000D+00 0.000000D+00 0.000000D+00 0.000000D+00
     37 0.000000D+00 0.000000D+00 0.000000D+00 0.000000D+00 0.000000D+00
     38 0.000000D+00 0.000000D+00 0.000000D+00 0.000000D+00 0.000000D+00
     39 0.000000D+00 0.000000D+00 0.000000D+00 0.000000D+00 0.000000D+00
     40 0.690893D-03 0.000000D+00 0.000000D+00 0.000000D+00 0.000000D+00
     41 0.000000D+00 0.000000D+00 0.000000D+00 0.000000D+00 0.000000D+00
     42 0.517260D-02 0.000000D+00 0.000000D+00 0.000000D+00 0.254774D-05
     43 0.140591D-03 0.000000D+00 0.000000D+00 0.000000D+00 0.000000D+00
     44 0.242266D-01 0.000000D+00 0.000000D+00 0.000000D+00 0.000000D+00
     45 0.994558D+00 0.000000D+00 0.000000D+00 0.000000D+00 0.000000D+00
     46 0.181381D+00 0.000000D+00 0.000000D+00 0.000000D+00 0.000000D+00
     47 0.000000D+00 0.758902D+01 0.000000D+00 0.000000D+00 0.000000D+00
     48 0.000000D+00-0.673212D-01 0.153063D-01 0.502053D-01 0.502053D-01
     49 0.000000D+00 0.000000D+00-0.373935D-01 0.523278D-01 0.523278D-01
     50 0.000000D+00 0.000000D+00 0.000000D+00 0.657551D-01-0.657551D-01
     51 0.000000D+00 0.000000D+00 0.000000D+00 0.551751D-01-0.551751D-01
     52 0.000000D+00 0.187618D+00 0.630344D-01 0.911267D-01 0.911267D-01
     53 0.000000D+00 0.000000D+00-0.131664D+00 0.806176D-01 0.806176D-01
     54 0.000000D+00 0.000000D+00 0.000000D+00 0.101304D+00-0.101304D+00
     55 0.000000D+00 0.000000D+00 0.000000D+00 0.850041D-01-0.850041D-01
     56 0.671766D-03 0.682363D-01 0.514090D-01 0.565711D-01 0.565711D-01
     57-0.101774D-02 0.000000D+00-0.547127D-01 0.254999D-01 0.254999D-01
     58-0.496713D-03 0.000000D+00 0.000000D+00 0.320432D-01-0.320432D-01
     59-0.265677D-02 0.000000D+00 0.000000D+00 0.268875D-01-0.268875D-01
     60 0.000000D+00 0.000000D+00 0.408539D-01 0.420753D-01 0.420753D-01
     61 0.000000D+00 0.000000D+00 0.000000D+00 0.664387D-01 0.664387D-01
     62 0.000000D+00 0.000000D+00 0.000000D+00 0.467787D-01 0.467787D-01
     63 0.000000D+00 0.000000D+00 0.000000D+00 0.915767D-01-0.915767D-01
     64 0.000000D+00 0.000000D+00 0.000000D+00 0.768420D-01-0.768420D-01
     65 0.000000D+00 0.000000D+00 0.000000D+00 0.965596D-01 0.965596D-01
     66 0.000000D+00 0.000000D+00 0.758902D+01 0.000000D+00 0.000000D+00
     67 0.000000D+00 0.153063D-01-0.673212D-01 0.756427D-04 0.756427D-04
     68 0.000000D+00 0.373935D-01 0.000000D+00 0.262955D-03 0.262955D-03
     69 0.000000D+00 0.000000D+00 0.000000D+00 0.983113D-04-0.983113D-04
     70 0.000000D+00 0.000000D+00 0.000000D+00 0.824930D-04-0.824930D-04
     71 0.000000D+00 0.630344D-01 0.187618D+00 0.121531D-01 0.121531D-01
     72 0.000000D+00 0.131664D+00 0.000000D+00 0.361366D-01 0.361366D-01
     73 0.000000D+00 0.000000D+00 0.000000D+00 0.135104D-01-0.135104D-01
     74 0.000000D+00 0.000000D+00 0.000000D+00 0.113366D-01-0.113366D-01
     75 0.113335D-02 0.514090D-01 0.682363D-01 0.335310D-01 0.335310D-01
     76-0.510870D-03 0.547127D-01 0.000000D+00 0.508002D-01 0.508002D-01
     77-0.838018D-03 0.000000D+00 0.000000D+00 0.189928D-01-0.189928D-01
     78-0.448231D-02 0.000000D+00 0.000000D+00 0.159368D-01-0.159368D-01
     79 0.000000D+00 0.408539D-01 0.000000D+00 0.337410D-04 0.337410D-04
     80 0.000000D+00 0.000000D+00 0.000000D+00 0.471631D-05 0.471631D-05
     81 0.000000D+00 0.000000D+00 0.000000D+00 0.332070D-05 0.332070D-05
     82 0.000000D+00 0.000000D+00 0.000000D+00 0.218494D-04-0.218494D-04
     83 0.000000D+00 0.000000D+00 0.000000D+00 0.183339D-04-0.183339D-04
     84 0.000000D+00 0.000000D+00 0.000000D+00 0.685451D-05 0.685451D-05
     85 0.000000D+00 0.268036D-01 0.128373D-04 0.994558D+00 0.140590D-03
     86 0.000000D+00 0.909467D-01 0.132555D-01 0.181381D+00 0.242266D-01
     87 0.000000D+00 0.268036D-01 0.128373D-04 0.140590D-03 0.994558D+00
     88 0.000000D+00 0.909467D-01 0.132555D-01 0.242266D-01 0.181381D+00
     89 0.000000D+00 0.128373D-04 0.268036D-01 0.000000D+00 0.000000D+00
     90 0.000000D+00 0.132555D-01 0.909467D-01 0.517260D-02 0.690893D-03
     91 0.000000D+00 0.128373D-04 0.268036D-01 0.000000D+00 0.000000D+00
     92 0.254774D-05 0.132555D-01 0.909467D-01 0.690893D-03 0.517260D-02
              11           12
      1 0.000000D+00 0.000000D+00
      2 0.000000D+00 0.000000D+00
      3 0.000000D+00 0.000000D+00
      4 0.000000D+00 0.000000D+00
      5 0.000000D+00 0.000000D+00
      6 0.000000D+00 0.000000D+00
      7 0.000000D+00 0.000000D+00
      8 0.000000D+00 0.000000D+00
      9 0.000000D+00 0.000000D+00
     10 0.262448D-03 0.171946D-02
     11-0.397615D-03-0.260502D-02
     12 0.148657D-03-0.973943D-03
     13 0.116270D-02 0.598306D-02
     14 0.000000D+00 0.000000D+00
     15 0.000000D+00 0.000000D+00
     16 0.000000D+00 0.000000D+00
     17 0.000000D+00 0.000000D+00
     18 0.000000D+00 0.000000D+00
     19 0.000000D+00 0.000000D+00
     20 0.000000D+00 0.000000D+00
     21 0.000000D+00 0.000000D+00
     22 0.000000D+00 0.000000D+00
     23 0.000000D+00 0.000000D+00
     24 0.000000D+00 0.000000D+00
     25 0.000000D+00 0.000000D+00
     26 0.000000D+00 0.000000D+00
     27 0.000000D+00-0.108750D-05
     28 0.000000D+00 0.668064D-05
     29 0.442784D-03 0.290095D-02
     30-0.199589D-03-0.130763D-02
     31 0.250803D-03-0.164317D-02
     32 0.196162D-02 0.100942D-01
     33 0.000000D+00 0.000000D+00
     34 0.000000D+00 0.000000D+00
     35 0.000000D+00 0.000000D+00
     36 0.000000D+00 0.000000D+00
     37 0.000000D+00 0.000000D+00
     38 0.000000D+00 0.000000D+00
     39 0.000000D+00 0.000000D+00
     40 0.000000D+00 0.000000D+00
     41 0.000000D+00 0.000000D+00
     42 0.000000D+00 0.000000D+00
     43 0.000000D+00 0.000000D+00
     44 0.000000D+00 0.000000D+00
     45 0.000000D+00 0.000000D+00
     46 0.000000D+00 0.254774D-05
     47 0.000000D+00 0.000000D+00
     48 0.756427D-04 0.756427D-04
     49-0.262955D-03-0.262955D-03
     50 0.983113D-04-0.983113D-04
     51 0.824930D-04-0.824930D-04
     52 0.121531D-01 0.121531D-01
     53-0.361366D-01-0.361366D-01
     54 0.135104D-01-0.135104D-01
     55 0.113366D-01-0.113366D-01
     56 0.335310D-01 0.335310D-01
     57-0.508002D-01-0.508002D-01
     58 0.189928D-01-0.189928D-01
     59 0.159368D-01-0.159368D-01
     60 0.337410D-04 0.337410D-04
     61 0.471631D-05 0.471631D-05
     62 0.332070D-05 0.332070D-05
     63-0.218494D-04 0.218494D-04
     64-0.183339D-04 0.183339D-04
     65 0.685451D-05 0.685451D-05
     66 0.000000D+00 0.000000D+00
     67 0.502053D-01 0.502053D-01
     68-0.523278D-01-0.523278D-01
     69 0.657551D-01-0.657551D-01
     70 0.551751D-01-0.551751D-01
     71 0.911267D-01 0.911267D-01
     72-0.806176D-01-0.806176D-01
     73 0.101304D+00-0.101304D+00
     74 0.850041D-01-0.850041D-01
     75 0.565711D-01 0.565711D-01
     76-0.254999D-01-0.254999D-01
     77 0.320432D-01-0.320432D-01
     78 0.268875D-01-0.268875D-01
     79 0.420753D-01 0.420753D-01
     80 0.664387D-01 0.664387D-01
     81 0.467787D-01 0.467787D-01
     82-0.915767D-01 0.915767D-01
     83-0.768420D-01 0.768420D-01
     84 0.965596D-01 0.965596D-01
     85 0.000000D+00 0.000000D+00
     86 0.517260D-02 0.690893D-03
     87 0.000000D+00 0.000000D+00
     88 0.690893D-03 0.517260D-02
     89 0.994558D+00 0.140590D-03
     90 0.181381D+00 0.242266D-01
     91 0.140590D-03 0.994558D+00
     92 0.242266D-01 0.181381D+00
 Harris functional with IExCor=  402 diagonalized for initial guess.
 ExpMin= 4.38D-02 ExpMax= 3.05D+03 ExpMxC= 4.57D+02 IAcc=2 IRadAn=         4 AccDes= 0.00D+00
 HarFok:  IExCor= 402 AccDes= 0.00D+00 IRadAn=         4 IDoV=1
 ScaDFX=  1.000000  1.000000  1.000000  1.000000
 Requested convergence on RMS density matrix=1.00D-08 within 128 cycles.
 Requested convergence on MAX density matrix=1.00D-06.
 Requested convergence on             energy=1.00D-06.
 No special actions if energy rises.
 Keep R1 integrals in memory in canonical form, NReq=    10527409.
 SCF Done:  E(RB+HF-LYP) =  -157.185742123     A.U. after    9 cycles
             Convg  =    0.4182D-08             -V/T =  2.0119
             S**2   =   0.0000

 **********************************************************************

            Population analysis using the SCF density.

 **********************************************************************

 Alpha  occ. eigenvalues --  -10.19781 -10.19700 -10.19614 -10.19533  -0.76120
 Alpha  occ. eigenvalues --   -0.75948  -0.58370  -0.58204  -0.47188  -0.47014
 Alpha  occ. eigenvalues --   -0.42189  -0.42023  -0.36245  -0.36076  -0.27599
 Alpha  occ. eigenvalues --   -0.27230
 Alpha virt. eigenvalues --   -0.01264  -0.00409   0.01562   0.02487   0.03433
 Alpha virt. eigenvalues --    0.04180   0.04477   0.06026   0.07550   0.08001
 Alpha virt. eigenvalues --    0.08278   0.09523   0.10114   0.12047   0.13200
 Alpha virt. eigenvalues --    0.15006   0.15574   0.17284   0.17604   0.19326
 Alpha virt. eigenvalues --    0.19878   0.22958   0.24593   0.27790   0.34517
 Alpha virt. eigenvalues --    0.34702   0.34884   0.36671   0.57801   0.58758
 Alpha virt. eigenvalues --    0.65850   0.66403   0.67919   0.70584   0.72551
 Alpha virt. eigenvalues --    0.73118   0.75970   0.78111   0.83526   0.86576
 Alpha virt. eigenvalues --    0.90071   0.91223   0.93745   0.94391   0.97202
 Alpha virt. eigenvalues --    0.99558   1.01169   1.03946   1.16573   1.17101
 Alpha virt. eigenvalues --    1.22059   1.22488   1.44902   1.45077   1.53995
 Alpha virt. eigenvalues --    1.54416   1.81742   1.81969   1.88638   1.88872
 Alpha virt. eigenvalues --    2.00101   2.00501   2.10925   2.11130   2.29547
 Alpha virt. eigenvalues --    2.29812   2.37164   2.37353   2.66589   2.66802
 Alpha virt. eigenvalues --    2.70051   2.70911   4.11857   4.12871   4.25223
 Alpha virt. eigenvalues --    4.25747
          Condensed to atoms (all electrons):
              1          2          3          4          5          6
     1  C    5.012081   0.665669   0.381527   0.383928  -0.035308  -0.038287
     2  C    0.665669   5.012081  -0.035308  -0.038287   0.381527   0.383928
     3  H    0.381527  -0.035308   0.506096  -0.033253  -0.006648   0.003956
     4  H    0.383928  -0.038287  -0.033253   0.508738   0.003956  -0.006680
     5  H   -0.035308   0.381527  -0.006648   0.003956   0.506096  -0.033253
     6  H   -0.038287   0.383928   0.003956  -0.006680  -0.033253   0.508738
     7  C   -0.001632  -0.001726   0.000018  -0.000070   0.000038   0.000078
     8  C   -0.001726  -0.001632   0.000038   0.000078   0.000018  -0.000070
     9  H    0.000009   0.000059   0.000000   0.000000   0.000000   0.000000
    10  H    0.000642  -0.000462  -0.000001  -0.000002   0.000000   0.000000
    11  H    0.000059   0.000009   0.000000   0.000000   0.000000   0.000000
    12  H   -0.000462   0.000642   0.000000   0.000000  -0.000001  -0.000002
              7          8          9         10         11         12
     1  C   -0.001632  -0.001726   0.000009   0.000642   0.000059  -0.000462
     2  C   -0.001726  -0.001632   0.000059  -0.000462   0.000009   0.000642
     3  H    0.000018   0.000038   0.000000  -0.000001   0.000000   0.000000
     4  H   -0.000070   0.000078   0.000000  -0.000002   0.000000   0.000000
     5  H    0.000038   0.000018   0.000000   0.000000   0.000000  -0.000001
     6  H    0.000078  -0.000070   0.000000   0.000000   0.000000  -0.000002
     7  C    4.999010   0.674292   0.383820   0.378992  -0.038084  -0.032345
     8  C    0.674292   4.999010  -0.038084  -0.032345   0.383820   0.378992
     9  H    0.383820  -0.038084   0.508756  -0.033320  -0.006743   0.003961
    10  H    0.378992  -0.032345  -0.033320   0.507059   0.003961  -0.006706
    11  H   -0.038084   0.383820  -0.006743   0.003961   0.508756  -0.033320
    12  H   -0.032345   0.378992   0.003961  -0.006706  -0.033320   0.507059
 Mulliken atomic charges:
              1
     1  C   -0.366499
     2  C   -0.366499
     3  H    0.183574
     4  H    0.181590
     5  H    0.183574
     6  H    0.181590
     7  C   -0.362390
     8  C   -0.362390
     9  H    0.181542
    10  H    0.182183
    11  H    0.181542
    12  H    0.182183
 Sum of Mulliken charges=   0.00000
 Atomic charges with hydrogens summed into heavy atoms:
              1
     1  C   -0.001335
     2  C   -0.001335
     3  H    0.000000
     4  H    0.000000
     5  H    0.000000
     6  H    0.000000
     7  C    0.001335
     8  C    0.001335
     9  H    0.000000
    10  H    0.000000
    11  H    0.000000
    12  H    0.000000
 Sum of Mulliken charges=   0.00000
 Electronic spatial extent (au):  <R**2>=  1597.5739
 Charge=     0.0000 electrons
 Dipole moment (field-independent basis, Debye):
    X=     0.0000    Y=     0.0171    Z=    -0.0140  Tot=     0.0221
 Quadrupole moment (field-independent basis, Debye-Ang):
   XX=   -24.9012   YY=   -26.3724   ZZ=   -31.1508
   XY=     0.0000   XZ=     0.0000   YZ=     1.8218
 Traceless Quadrupole moment (field-independent basis, Debye-Ang):
   XX=     2.5736   YY=     1.1024   ZZ=    -3.6760
   XY=     0.0000   XZ=     0.0000   YZ=     1.8218
 Octapole moment (field-independent basis, Debye-Ang**2):
  XXX=     0.0000  YYY=     0.0476  ZZZ=  -222.1045  XYY=     0.0000
  XXY=     0.0257  XXZ=   -62.2775  XZZ=     0.0000  YZZ=    18.2549
  YYZ=   -69.7889  XYZ=     0.0000
 Hexadecapole moment (field-independent basis, Debye-Ang**3):
 XXXX=  -143.9835 YYYY=   -55.8864 ZZZZ= -2262.1185 XXXY=     0.0000
 XXXZ=     0.0000 YYYX=     0.0000 YYYZ=    -1.3467 ZZZX=     0.0000
 ZZZY=   135.4936 XXYY=   -29.6149 XXZZ=  -344.5463 YYZZ=  -366.7990
 XXYZ=     1.2162 YYXZ=     0.0000 ZZXY=     0.0000
 N-N= 9.238617161751D+01 E-N=-5.471554125218D+02  KE= 1.553425409819D+02

 Test job not archived.
 1\1\GINC-RHUBARB\SP\RB3LYP\6-31+G(d)\C4H8\JK905\09-Nov-2007\0\\#B3LYP/
 6-31+G* SCF=TIGHT NOSYMM PUNCH=MO IOP(3/33=1)\\9_11_07\\0,1\C,0,0.6727
 49,0.,0.\C,0,-0.672749,0.,0.\H,0,1.242623,0.934806,0.\H,0,1.242623,-0.
 934806,0.\H,0,-1.242623,0.934806,0.\H,0,-1.242623,-0.934806,0.\C,0,0.6
 72749,0.,5.\C,0,-0.672749,0.,5.\H,0,1.242623,0.716103,5.600882\H,0,1.2
 42623,-0.716103,4.399118\H,0,-1.242623,0.716103,5.600882\H,0,-1.242623
 ,-0.716103,4.399118\\Version=x86_64-Linux-G03RevB.05\HF=-157.1857421\R
 MSD=4.182e-09\Dipole=0.,0.0067371,-0.005509\PG=CS [X(C4H8)]\\@


 AND THIS OUR LIFE, EXEMPT FROM PUBLIC HAUNT,
 FINDS TONGUES IN TREES, BOOKS IN THE RUNNING BROOKS,
 SERMONS IN STONES, AND GOOD IN EVERYTHING.
 I WOULD NOT CHANGE IT. -- W. SHAKESPEARE
 AS YOU LIKE IT, ACT II, SCENE 1.
 Job cpu time:  0 days  0 hours  0 minutes 38.7 seconds.
 File lengths (MBytes):  RWF=     17 Int=      0 D2E=      0 Chk=     10 Scr=      1
 Normal termination of Gaussian 03 at Fri Nov  9 15:51:59 2007.
