 Entering Gaussian System, Link 0=g03
 Input=80_2.com
 Output=80_2.log
 Initial command:
 /usr/local/g03/l1.exe /export/home/joe2/code/J_from_g03/examples/ethylene/Gau-17794.inp -scrdir=/export/home/joe2/code/J_from_g03/examples/ethylene/
 Entering Link 1 = /usr/local/g03/l1.exe PID=     17795.
  
 Copyright (c) 1988,1990,1992,1993,1995,1998,2003, Gaussian, Inc.
                  All Rights Reserved.
  
 This is the Gaussian(R) 03 program.  It is based on the
 the Gaussian(R) 98 system (copyright 1998, Gaussian, Inc.),
 the Gaussian(R) 94 system (copyright 1995, Gaussian, Inc.),
 the Gaussian 92(TM) system (copyright 1992, Gaussian, Inc.),
 the Gaussian 90(TM) system (copyright 1990, Gaussian, Inc.),
 the Gaussian 88(TM) system (copyright 1988, Gaussian, Inc.),
 the Gaussian 86(TM) system (copyright 1986, Carnegie Mellon
 University), and the Gaussian 82(TM) system (copyright 1983,
 Carnegie Mellon University). Gaussian is a federally registered
 trademark of Gaussian, Inc.
  
 This software contains proprietary and confidential information,
 including trade secrets, belonging to Gaussian, Inc.
  
 This software is provided under written license and may be
 used, copied, transmitted, or stored only in accord with that
 written license.
  
 The following legend is applicable only to US Government
 contracts under DFARS:
  
                    RESTRICTED RIGHTS LEGEND
  
 Use, duplication or disclosure by the US Government is subject
 to restrictions as set forth in subparagraph (c)(1)(ii) of the
 Rights in Technical Data and Computer Software clause at DFARS
 252.227-7013.
  
 Gaussian, Inc.
 Carnegie Office Park, Building 6, Pittsburgh, PA 15106 USA
  
 The following legend is applicable only to US Government
 contracts under FAR:
  
                    RESTRICTED RIGHTS LEGEND
  
 Use, reproduction and disclosure by the US Government is subject
 to restrictions as set forth in subparagraph (c) of the
 Commercial Computer Software - Restricted Rights clause at FAR
 52.227-19.
  
 Gaussian, Inc.
 Carnegie Office Park, Building 6, Pittsburgh, PA 15106 USA
  
  
 ---------------------------------------------------------------
 Warning -- This program may not be used in any manner that
 competes with the business of Gaussian, Inc. or will provide
 assistance to any competitor of Gaussian, Inc.  The licensee
 of this program is prohibited from giving any competitor of
 Gaussian, Inc. access to this program.  By using this program,
 the user acknowledges that Gaussian, Inc. is engaged in the
 business of creating and licensing software in the field of
 computational chemistry and represents and warrants to the
 licensee that it is not a competitor of Gaussian, Inc. and that
 it will not use this program in any manner prohibited above.
 ---------------------------------------------------------------
  

 Cite this work as:
 Gaussian 03, Revision B.05,
 M. J. Frisch, G. W. Trucks, H. B. Schlegel, G. E. Scuseria, 
 M. A. Robb, J. R. Cheeseman, J. A. Montgomery, Jr., T. Vreven, 
 K. N. Kudin, J. C. Burant, J. M. Millam, S. S. Iyengar, J. Tomasi, 
 V. Barone, B. Mennucci, M. Cossi, G. Scalmani, N. Rega, 
 G. A. Petersson, H. Nakatsuji, M. Hada, M. Ehara, K. Toyota, 
 R. Fukuda, J. Hasegawa, M. Ishida, T. Nakajima, Y. Honda, O. Kitao, 
 H. Nakai, M. Klene, X. Li, J. E. Knox, H. P. Hratchian, J. B. Cross, 
 C. Adamo, J. Jaramillo, R. Gomperts, R. E. Stratmann, O. Yazyev, 
 A. J. Austin, R. Cammi, C. Pomelli, J. W. Ochterski, P. Y. Ayala, 
 K. Morokuma, G. A. Voth, P. Salvador, J. J. Dannenberg, 
 V. G. Zakrzewski, S. Dapprich, A. D. Daniels, M. C. Strain, 
 O. Farkas, D. K. Malick, A. D. Rabuck, K. Raghavachari, 
 J. B. Foresman, J. V. Ortiz, Q. Cui, A. G. Baboul, S. Clifford, 
 J. Cioslowski, B. B. Stefanov, G. Liu, A. Liashenko, P. Piskorz, 
 I. Komaromi, R. L. Martin, D. J. Fox, T. Keith, M. A. Al-Laham, 
 C. Y. Peng, A. Nanayakkara, M. Challacombe, P. M. W. Gill, 
 B. Johnson, W. Chen, M. W. Wong, C. Gonzalez, and J. A. Pople, 
 Gaussian, Inc., Pittsburgh PA, 2003.
 
 *************************************************
 Gaussian 03:  x86_64-Linux-G03RevB.05  8-Nov-2003
                     9-Nov-2007 
 *************************************************
 %nprocshared=2
 Will use up to    2 processors via shared memory.
 %mem=1GB
 ----------------------------------------------------
 #b3lyp/6-31+g* scf=tight nosymm punch=mo iop(3/33=1)
 ----------------------------------------------------
 1/38=1/1;
 2/15=1,17=6,18=5,40=1/2;
 3/5=1,6=6,7=11,11=2,16=1,25=1,30=1,33=1,74=-5/1,2,3;
 4//1;
 5/5=2,32=2,38=5/2;
 6/7=2,8=2,9=2,10=2,28=1/1;
 99/5=1,9=1,10=32/99;
 -------
 9_11_07
 -------
 Symbolic Z-matrix:
 Charge =  0 Multiplicity = 1
 C                     0.67275   0.        5. 
 C                    -0.67275   0.        5. 
 H                     1.24262   0.16233   5.9206 
 H                     1.24262  -0.16233   4.0794 
 H                    -1.24262   0.16233   5.9206 
 H                    -1.24262  -0.16233   4.0794 
 
                          Input orientation:                          
 ---------------------------------------------------------------------
 Center     Atomic     Atomic              Coordinates (Angstroms)
 Number     Number      Type              X           Y           Z
 ---------------------------------------------------------------------
    1          6             0        0.672749    0.000000    5.000000
    2          6             0       -0.672749    0.000000    5.000000
    3          1             0        1.242623    0.162327    5.920604
    4          1             0        1.242623   -0.162327    4.079396
    5          1             0       -1.242623    0.162327    5.920604
    6          1             0       -1.242623   -0.162327    4.079396
 ---------------------------------------------------------------------
                    Distance matrix (angstroms):
                    1          2          3          4          5
     1  C    0.000000
     2  C    1.345498   0.000000
     3  H    1.094814   2.131317   0.000000
     4  H    1.094814   2.131317   1.869611   0.000000
     5  H    2.131317   1.094814   2.485246   3.109967   0.000000
     6  H    2.131317   1.094814   3.109967   2.485246   1.869611
                    6
     6  H    0.000000
 Symmetry turned off by external request.
 Stoichiometry    C2H4
 Framework group  D2H[C2"(C.C),SG(H4)]
 Deg. of freedom     3
 Full point group                 D2H     NOp   8
 Rotational constants (GHZ):    143.4595014     29.5768688     24.5213353
 Standard basis: 6-31+G(d) (6D, 7F)
                         Coordinates in L301:                         
 ---------------------------------------------------------------------
 Center     Atomic     Atomic              Coordinates (Angstroms)
 Number     Number      Type              X           Y           Z
 ---------------------------------------------------------------------
    1          6             0        0.672749    0.000000    5.000000
    2          6             0       -0.672749    0.000000    5.000000
    3          1             0        1.242623    0.162327    5.920604
    4          1             0        1.242623   -0.162327    4.079396
    5          1             0       -1.242623    0.162327    5.920604
    6          1             0       -1.242623   -0.162327    4.079396
 ---------------------------------------------------------------------
 LdAtmC:  AtmChg=     6.000000     6.000000     1.000000     1.000000     1.000000
 LdAtmC:  AtmChg=     1.000000
 AtZEff=  -3.6000000  -3.6000000  -1.0000000  -1.0000000  -1.0000000  -1.0000000
 Integral buffers will be    131072 words long.
 Raffenetti 2 integral format.
 Two-electron integral symmetry is turned off.
    46 basis functions,    80 primitive gaussians,    46 cartesian basis functions
     8 alpha electrons        8 beta electrons
       nuclear repulsion energy        33.0501053693 Hartrees.
 NAtoms=    6 NActive=    6 NUniq=    6 SFac= 1.00D+00 NAtFMM=   60 Big=F
 NPDir=0 NMtPBC=     1 NCelOv=     1 NCel=       1 NClECP=     1 NCelD=      1
         NCelK=      1 NCelE2=     1 NClLst=     1 CellRange=     0.0.
 One-electron integrals computed using PRISM.
 Entering OneElI...
 Calculate overlap and kinetic energy integrals
    NBasis =  46  MinDer = 0  MaxDer = 0
 Requested accuracy = 0.1000D-12
 PrsmSu:  NPrtUS=   1 ThrOK=F
 PRISM was handed   134176257 working-precision words and   171 shell-pairs
 *** Overlap *** 
                1             2             3             4             5
      1  0.100000D+01
      2  0.219059D+00  0.100000D+01
      3  0.000000D+00  0.000000D+00  0.100000D+01
      4  0.000000D+00  0.000000D+00  0.000000D+00  0.100000D+01
      5  0.000000D+00  0.000000D+00  0.000000D+00  0.000000D+00  0.100000D+01
      6  0.184261D+00  0.812273D+00  0.000000D+00  0.000000D+00  0.000000D+00
      7  0.000000D+00  0.000000D+00  0.569754D+00  0.000000D+00  0.000000D+00
      8  0.000000D+00  0.000000D+00  0.000000D+00  0.569754D+00  0.000000D+00
      9  0.000000D+00  0.000000D+00  0.000000D+00  0.000000D+00  0.569754D+00
     10  0.697718D-01  0.402091D+00  0.000000D+00  0.000000D+00  0.000000D+00
     11  0.000000D+00  0.000000D+00  0.164679D+00  0.000000D+00  0.000000D+00
     12  0.000000D+00  0.000000D+00  0.000000D+00  0.164679D+00  0.000000D+00
     13  0.000000D+00  0.000000D+00  0.000000D+00  0.000000D+00  0.164679D+00
     14  0.791027D-01  0.710235D+00  0.000000D+00  0.000000D+00  0.000000D+00
     15  0.791027D-01  0.710235D+00  0.000000D+00  0.000000D+00  0.000000D+00
     16  0.791027D-01  0.710235D+00  0.000000D+00  0.000000D+00  0.000000D+00
     17  0.000000D+00  0.000000D+00  0.000000D+00  0.000000D+00  0.000000D+00
     18  0.000000D+00  0.000000D+00  0.000000D+00  0.000000D+00  0.000000D+00
     19  0.000000D+00  0.000000D+00  0.000000D+00  0.000000D+00  0.000000D+00
     20  0.481399D-05  0.194904D-01 -0.426713D-01  0.000000D+00  0.000000D+00
     21  0.194904D-01  0.203366D+00 -0.282219D+00  0.000000D+00  0.000000D+00
     22  0.426713D-01  0.282219D+00 -0.333594D+00  0.000000D+00  0.000000D+00
     23  0.000000D+00  0.000000D+00  0.000000D+00  0.115814D+00  0.000000D+00
     24  0.000000D+00  0.000000D+00  0.000000D+00  0.000000D+00  0.115814D+00
     25  0.643636D-01  0.359351D+00 -0.253511D+00  0.000000D+00  0.000000D+00
     26  0.129620D+00  0.562375D+00 -0.170740D+00  0.000000D+00  0.000000D+00
     27  0.000000D+00  0.000000D+00  0.000000D+00  0.242739D+00  0.000000D+00
     28  0.000000D+00  0.000000D+00  0.000000D+00  0.000000D+00  0.242739D+00
     29  0.527094D-01  0.309785D+00 -0.673317D-01  0.000000D+00  0.000000D+00
     30  0.555561D-01  0.303665D+00  0.598522D-01  0.000000D+00  0.000000D+00
     31  0.000000D+00  0.000000D+00  0.000000D+00  0.126532D+00  0.000000D+00
     32  0.000000D+00  0.000000D+00  0.000000D+00  0.000000D+00  0.126532D+00
     33  0.526767D-01  0.334402D+00 -0.413876D+00  0.000000D+00  0.000000D+00
     34  0.113280D-02  0.928256D-01 -0.142160D+00  0.000000D+00  0.000000D+00
     35  0.113280D-02  0.928256D-01 -0.142160D+00  0.000000D+00  0.000000D+00
     36  0.000000D+00  0.000000D+00  0.000000D+00  0.183392D+00  0.000000D+00
     37  0.000000D+00  0.000000D+00  0.000000D+00  0.000000D+00  0.183392D+00
     38  0.000000D+00  0.000000D+00  0.000000D+00  0.000000D+00  0.000000D+00
     39  0.320525D-01  0.270664D+00  0.190666D+00  0.543105D-01  0.308011D+00
     40  0.916644D-01  0.473962D+00  0.138280D+00  0.393885D-01  0.223384D+00
     41  0.320525D-01  0.270664D+00  0.190666D+00 -0.543105D-01 -0.308011D+00
     42  0.916644D-01  0.473962D+00  0.138280D+00 -0.393885D-01 -0.223384D+00
     43  0.430533D-04  0.789567D-02 -0.152645D-01  0.129366D-02  0.733675D-02
     44  0.142782D-01  0.109874D+00 -0.102097D+00  0.865264D-02  0.490716D-01
     45  0.430533D-04  0.789567D-02 -0.152645D-01 -0.129366D-02 -0.733675D-02
     46  0.142782D-01  0.109874D+00 -0.102097D+00 -0.865264D-02 -0.490716D-01
                6             7             8             9            10
      6  0.100000D+01
      7  0.000000D+00  0.100000D+01
      8  0.000000D+00  0.000000D+00  0.100000D+01
      9  0.000000D+00  0.000000D+00  0.000000D+00  0.100000D+01
     10  0.727666D+00  0.000000D+00  0.000000D+00  0.000000D+00  0.100000D+01
     11  0.000000D+00  0.588690D+00  0.000000D+00  0.000000D+00  0.000000D+00
     12  0.000000D+00  0.000000D+00  0.588690D+00  0.000000D+00  0.000000D+00
     13  0.000000D+00  0.000000D+00  0.000000D+00  0.588690D+00  0.000000D+00
     14  0.629936D+00  0.000000D+00  0.000000D+00  0.000000D+00  0.323540D+00
     15  0.629936D+00  0.000000D+00  0.000000D+00  0.000000D+00  0.323540D+00
     16  0.629936D+00  0.000000D+00  0.000000D+00  0.000000D+00  0.323540D+00
     17  0.000000D+00  0.000000D+00  0.000000D+00  0.000000D+00  0.000000D+00
     18  0.000000D+00  0.000000D+00  0.000000D+00  0.000000D+00  0.000000D+00
     19  0.000000D+00  0.000000D+00  0.000000D+00  0.000000D+00  0.000000D+00
     20  0.643636D-01 -0.129620D+00  0.000000D+00  0.000000D+00  0.527094D-01
     21  0.359351D+00 -0.562375D+00  0.000000D+00  0.000000D+00  0.309785D+00
     22  0.253511D+00 -0.170740D+00  0.000000D+00  0.000000D+00  0.673317D-01
     23  0.000000D+00  0.000000D+00  0.242739D+00  0.000000D+00  0.000000D+00
     24  0.000000D+00  0.000000D+00  0.000000D+00  0.242739D+00  0.000000D+00
     25  0.579631D+00 -0.605354D+00  0.000000D+00  0.000000D+00  0.581168D+00
     26  0.605354D+00 -0.525884D-01  0.000000D+00  0.000000D+00  0.250193D+00
     27  0.000000D+00  0.000000D+00  0.579631D+00  0.000000D+00  0.000000D+00
     28  0.000000D+00  0.000000D+00  0.000000D+00  0.579631D+00  0.000000D+00
     29  0.581168D+00 -0.250193D+00  0.000000D+00  0.000000D+00  0.867984D+00
     30  0.491037D+00  0.258780D+00  0.000000D+00  0.000000D+00  0.461882D+00
     31  0.000000D+00  0.000000D+00  0.470171D+00  0.000000D+00  0.000000D+00
     32  0.000000D+00  0.000000D+00  0.000000D+00  0.470171D+00  0.000000D+00
     33  0.353148D+00 -0.422973D+00  0.000000D+00  0.000000D+00  0.254635D+00
     34  0.255918D+00 -0.441451D+00  0.000000D+00  0.000000D+00  0.247363D+00
     35  0.255918D+00 -0.441451D+00  0.000000D+00  0.000000D+00  0.247363D+00
     36  0.000000D+00  0.000000D+00  0.161252D+00  0.000000D+00  0.000000D+00
     37  0.000000D+00  0.000000D+00  0.000000D+00  0.161252D+00  0.000000D+00
     38  0.000000D+00  0.000000D+00  0.000000D+00  0.000000D+00  0.000000D+00
     39  0.375116D+00  0.267879D+00  0.763046D-01  0.432746D+00  0.258482D+00
     40  0.702351D+00  0.303675D+00  0.865010D-01  0.490572D+00  0.640357D+00
     41  0.375116D+00  0.267879D+00 -0.763046D-01 -0.432746D+00  0.258482D+00
     42  0.702351D+00  0.303675D+00 -0.865010D-01 -0.490572D+00  0.640357D+00
     43  0.740737D-01 -0.176934D+00  0.149950D-01  0.850413D-01  0.158045D+00
     44  0.262382D+00 -0.381297D+00  0.323148D-01  0.183267D+00  0.424412D+00
     45  0.740737D-01 -0.176934D+00 -0.149950D-01 -0.850413D-01  0.158045D+00
     46  0.262382D+00 -0.381297D+00 -0.323148D-01 -0.183267D+00  0.424412D+00
               11            12            13            14            15
     11  0.100000D+01
     12  0.000000D+00  0.100000D+01
     13  0.000000D+00  0.000000D+00  0.100000D+01
     14  0.000000D+00  0.000000D+00  0.000000D+00  0.100000D+01
     15  0.000000D+00  0.000000D+00  0.000000D+00  0.333333D+00  0.100000D+01
     16  0.000000D+00  0.000000D+00  0.000000D+00  0.333333D+00  0.333333D+00
     17  0.000000D+00  0.000000D+00  0.000000D+00  0.000000D+00  0.000000D+00
     18  0.000000D+00  0.000000D+00  0.000000D+00  0.000000D+00  0.000000D+00
     19  0.000000D+00  0.000000D+00  0.000000D+00  0.000000D+00  0.000000D+00
     20 -0.555561D-01  0.000000D+00  0.000000D+00  0.526767D-01  0.113280D-02
     21 -0.303665D+00  0.000000D+00  0.000000D+00  0.334402D+00  0.928256D-01
     22  0.598522D-01  0.000000D+00  0.000000D+00  0.413876D+00  0.142160D+00
     23  0.000000D+00  0.126532D+00  0.000000D+00  0.000000D+00  0.000000D+00
     24  0.000000D+00  0.000000D+00  0.126532D+00  0.000000D+00  0.000000D+00
     25 -0.491037D+00  0.000000D+00  0.000000D+00  0.353148D+00  0.255918D+00
     26  0.258780D+00  0.000000D+00  0.000000D+00  0.422973D+00  0.441451D+00
     27  0.000000D+00  0.470171D+00  0.000000D+00  0.000000D+00  0.000000D+00
     28  0.000000D+00  0.000000D+00  0.470171D+00  0.000000D+00  0.000000D+00
     29 -0.461882D+00  0.000000D+00  0.000000D+00  0.254635D+00  0.247363D+00
     30  0.622202D+00  0.000000D+00  0.000000D+00  0.229601D+00  0.249594D+00
     31  0.000000D+00  0.867984D+00  0.000000D+00  0.000000D+00  0.000000D+00
     32  0.000000D+00  0.000000D+00  0.867984D+00  0.000000D+00  0.000000D+00
     33 -0.229601D+00  0.000000D+00  0.000000D+00  0.487216D+00  0.154963D+00
     34 -0.249594D+00  0.000000D+00  0.000000D+00  0.154963D+00  0.753228D-01
     35 -0.249594D+00  0.000000D+00  0.000000D+00  0.154963D+00  0.251076D-01
     36  0.000000D+00  0.236690D-01  0.000000D+00  0.000000D+00  0.000000D+00
     37  0.000000D+00  0.000000D+00  0.236690D-01  0.000000D+00  0.000000D+00
     38  0.000000D+00  0.000000D+00  0.000000D+00  0.000000D+00  0.000000D+00
     39  0.109596D+00  0.312180D-01  0.177046D+00  0.207130D+00  0.123414D+00
     40  0.226998D+00  0.646599D-01  0.366705D+00  0.371459D+00  0.351303D+00
     41  0.109596D+00 -0.312180D-01 -0.177046D+00  0.207130D+00  0.123414D+00
     42  0.226998D+00 -0.646599D-01 -0.366705D+00  0.371459D+00  0.351303D+00
     43 -0.225200D+00  0.190856D-01  0.108240D+00  0.137730D-01  0.170528D-02
     44 -0.505665D+00  0.428549D-01  0.243043D+00  0.120267D+00  0.707321D-01
     45 -0.225200D+00 -0.190856D-01 -0.108240D+00  0.137730D-01  0.170528D-02
     46 -0.505665D+00 -0.428549D-01 -0.243043D+00  0.120267D+00  0.707321D-01
               16            17            18            19            20
     16  0.100000D+01
     17  0.000000D+00  0.100000D+01
     18  0.000000D+00  0.000000D+00  0.100000D+01
     19  0.000000D+00  0.000000D+00  0.000000D+00  0.100000D+01
     20  0.113280D-02  0.000000D+00  0.000000D+00  0.000000D+00  0.100000D+01
     21  0.928256D-01  0.000000D+00  0.000000D+00  0.000000D+00  0.219059D+00
     22  0.142160D+00  0.000000D+00  0.000000D+00  0.000000D+00  0.000000D+00
     23  0.000000D+00 -0.183392D+00  0.000000D+00  0.000000D+00  0.000000D+00
     24  0.000000D+00  0.000000D+00 -0.183392D+00  0.000000D+00  0.000000D+00
     25  0.255918D+00  0.000000D+00  0.000000D+00  0.000000D+00  0.184261D+00
     26  0.441451D+00  0.000000D+00  0.000000D+00  0.000000D+00  0.000000D+00
     27  0.000000D+00 -0.161252D+00  0.000000D+00  0.000000D+00  0.000000D+00
     28  0.000000D+00  0.000000D+00 -0.161252D+00  0.000000D+00  0.000000D+00
     29  0.247363D+00  0.000000D+00  0.000000D+00  0.000000D+00  0.697718D-01
     30  0.249594D+00  0.000000D+00  0.000000D+00  0.000000D+00  0.000000D+00
     31  0.000000D+00 -0.236690D-01  0.000000D+00  0.000000D+00  0.000000D+00
     32  0.000000D+00  0.000000D+00 -0.236690D-01  0.000000D+00  0.000000D+00
     33  0.154963D+00  0.000000D+00  0.000000D+00  0.000000D+00  0.791027D-01
     34  0.251076D-01  0.000000D+00  0.000000D+00  0.000000D+00  0.791027D-01
     35  0.753228D-01  0.000000D+00  0.000000D+00  0.000000D+00  0.791027D-01
     36  0.000000D+00 -0.314243D+00  0.000000D+00  0.000000D+00  0.000000D+00
     37  0.000000D+00  0.000000D+00 -0.314243D+00  0.000000D+00  0.000000D+00
     38  0.000000D+00  0.000000D+00  0.000000D+00  0.753228D-01  0.000000D+00
     39  0.353785D+00  0.449500D-01  0.254925D+00  0.726146D-01  0.430533D-04
     40  0.406770D+00  0.108227D-01  0.613785D-01  0.174835D-01  0.142782D-01
     41  0.353785D+00 -0.449500D-01 -0.254925D+00  0.726146D-01  0.430533D-04
     42  0.406770D+00 -0.108227D-01 -0.613785D-01  0.174835D-01  0.142782D-01
     43  0.442596D-02 -0.178424D-02 -0.101190D-01  0.857578D-03  0.320525D-01
     44  0.818999D-01 -0.732391D-02 -0.415360D-01  0.352016D-02  0.916644D-01
     45  0.442596D-02  0.178424D-02  0.101190D-01  0.857578D-03  0.320525D-01
     46  0.818999D-01  0.732391D-02  0.415360D-01  0.352016D-02  0.916644D-01
               21            22            23            24            25
     21  0.100000D+01
     22  0.000000D+00  0.100000D+01
     23  0.000000D+00  0.000000D+00  0.100000D+01
     24  0.000000D+00  0.000000D+00  0.000000D+00  0.100000D+01
     25  0.812273D+00  0.000000D+00  0.000000D+00  0.000000D+00  0.100000D+01
     26  0.000000D+00  0.569754D+00  0.000000D+00  0.000000D+00  0.000000D+00
     27  0.000000D+00  0.000000D+00  0.569754D+00  0.000000D+00  0.000000D+00
     28  0.000000D+00  0.000000D+00  0.000000D+00  0.569754D+00  0.000000D+00
     29  0.402091D+00  0.000000D+00  0.000000D+00  0.000000D+00  0.727666D+00
     30  0.000000D+00  0.164679D+00  0.000000D+00  0.000000D+00  0.000000D+00
     31  0.000000D+00  0.000000D+00  0.164679D+00  0.000000D+00  0.000000D+00
     32  0.000000D+00  0.000000D+00  0.000000D+00  0.164679D+00  0.000000D+00
     33  0.710235D+00  0.000000D+00  0.000000D+00  0.000000D+00  0.629936D+00
     34  0.710235D+00  0.000000D+00  0.000000D+00  0.000000D+00  0.629936D+00
     35  0.710235D+00  0.000000D+00  0.000000D+00  0.000000D+00  0.629936D+00
     36  0.000000D+00  0.000000D+00  0.000000D+00  0.000000D+00  0.000000D+00
     37  0.000000D+00  0.000000D+00  0.000000D+00  0.000000D+00  0.000000D+00
     38  0.000000D+00  0.000000D+00  0.000000D+00  0.000000D+00  0.000000D+00
     39  0.789567D-02  0.152645D-01  0.129366D-02  0.733675D-02  0.740737D-01
     40  0.109874D+00  0.102097D+00  0.865264D-02  0.490716D-01  0.262382D+00
     41  0.789567D-02  0.152645D-01 -0.129366D-02 -0.733675D-02  0.740737D-01
     42  0.109874D+00  0.102097D+00 -0.865264D-02 -0.490716D-01  0.262382D+00
     43  0.270664D+00 -0.190666D+00  0.543105D-01  0.308011D+00  0.375116D+00
     44  0.473962D+00 -0.138280D+00  0.393885D-01  0.223384D+00  0.702351D+00
     45  0.270664D+00 -0.190666D+00 -0.543105D-01 -0.308011D+00  0.375116D+00
     46  0.473962D+00 -0.138280D+00 -0.393885D-01 -0.223384D+00  0.702351D+00
               26            27            28            29            30
     26  0.100000D+01
     27  0.000000D+00  0.100000D+01
     28  0.000000D+00  0.000000D+00  0.100000D+01
     29  0.000000D+00  0.000000D+00  0.000000D+00  0.100000D+01
     30  0.588690D+00  0.000000D+00  0.000000D+00  0.000000D+00  0.100000D+01
     31  0.000000D+00  0.588690D+00  0.000000D+00  0.000000D+00  0.000000D+00
     32  0.000000D+00  0.000000D+00  0.588690D+00  0.000000D+00  0.000000D+00
     33  0.000000D+00  0.000000D+00  0.000000D+00  0.323540D+00  0.000000D+00
     34  0.000000D+00  0.000000D+00  0.000000D+00  0.323540D+00  0.000000D+00
     35  0.000000D+00  0.000000D+00  0.000000D+00  0.323540D+00  0.000000D+00
     36  0.000000D+00  0.000000D+00  0.000000D+00  0.000000D+00  0.000000D+00
     37  0.000000D+00  0.000000D+00  0.000000D+00  0.000000D+00  0.000000D+00
     38  0.000000D+00  0.000000D+00  0.000000D+00  0.000000D+00  0.000000D+00
     39  0.176934D+00  0.149950D-01  0.850413D-01  0.158045D+00  0.225200D+00
     40  0.381297D+00  0.323148D-01  0.183267D+00  0.424412D+00  0.505665D+00
     41  0.176934D+00 -0.149950D-01 -0.850413D-01  0.158045D+00  0.225200D+00
     42  0.381297D+00 -0.323148D-01 -0.183267D+00  0.424412D+00  0.505665D+00
     43 -0.267879D+00  0.763046D-01  0.432746D+00  0.258482D+00 -0.109596D+00
     44 -0.303675D+00  0.865010D-01  0.490572D+00  0.640357D+00 -0.226998D+00
     45 -0.267879D+00 -0.763046D-01 -0.432746D+00  0.258482D+00 -0.109596D+00
     46 -0.303675D+00 -0.865010D-01 -0.490572D+00  0.640357D+00 -0.226998D+00
               31            32            33            34            35
     31  0.100000D+01
     32  0.000000D+00  0.100000D+01
     33  0.000000D+00  0.000000D+00  0.100000D+01
     34  0.000000D+00  0.000000D+00  0.333333D+00  0.100000D+01
     35  0.000000D+00  0.000000D+00  0.333333D+00  0.333333D+00  0.100000D+01
     36  0.000000D+00  0.000000D+00  0.000000D+00  0.000000D+00  0.000000D+00
     37  0.000000D+00  0.000000D+00  0.000000D+00  0.000000D+00  0.000000D+00
     38  0.000000D+00  0.000000D+00  0.000000D+00  0.000000D+00  0.000000D+00
     39  0.190856D-01  0.108240D+00  0.137730D-01  0.170528D-02  0.442596D-02
     40  0.428549D-01  0.243043D+00  0.120267D+00  0.707321D-01  0.818999D-01
     41 -0.190856D-01 -0.108240D+00  0.137730D-01  0.170528D-02  0.442596D-02
     42 -0.428549D-01 -0.243043D+00  0.120267D+00  0.707321D-01  0.818999D-01
     43  0.312180D-01  0.177046D+00  0.207130D+00  0.123414D+00  0.353785D+00
     44  0.646599D-01  0.366705D+00  0.371459D+00  0.351303D+00  0.406770D+00
     45 -0.312180D-01 -0.177046D+00  0.207130D+00  0.123414D+00  0.353785D+00
     46 -0.646599D-01 -0.366705D+00  0.371459D+00  0.351303D+00  0.406770D+00
               36            37            38            39            40
     36  0.100000D+01
     37  0.000000D+00  0.100000D+01
     38  0.000000D+00  0.000000D+00  0.100000D+01
     39  0.178424D-02  0.101190D-01  0.857578D-03  0.100000D+01
     40  0.732391D-02  0.415360D-01  0.352016D-02  0.658292D+00  0.100000D+01
     41 -0.178424D-02 -0.101190D-01  0.857578D-03  0.125798D-01  0.128011D+00
     42 -0.732391D-02 -0.415360D-01  0.352016D-02  0.128011D+00  0.365470D+00
     43 -0.449500D-01 -0.254925D+00  0.726146D-01  0.571644D-03  0.366357D-01
     44 -0.108227D-01 -0.613785D-01  0.174835D-01  0.366357D-01  0.168873D+00
     45  0.449500D-01  0.254925D+00  0.726146D-01  0.104764D-04  0.720595D-02
     46  0.108227D-01  0.613785D-01  0.174835D-01  0.720595D-02  0.617178D-01
               41            42            43            44            45
     41  0.100000D+01
     42  0.658292D+00  0.100000D+01
     43  0.104764D-04  0.720595D-02  0.100000D+01
     44  0.720595D-02  0.617178D-01  0.658292D+00  0.100000D+01
     45  0.571644D-03  0.366357D-01  0.125798D-01  0.128011D+00  0.100000D+01
     46  0.366357D-01  0.168873D+00  0.128011D+00  0.365470D+00  0.658292D+00
               46
     46  0.100000D+01
 *** Kinetic Energy *** 
                1             2             3             4             5
      1  0.162076D+02
      2 -0.124757D+01  0.932246D+00
      3  0.000000D+00  0.000000D+00  0.217833D+01
      4  0.000000D+00  0.000000D+00  0.000000D+00  0.217833D+01
      5  0.000000D+00  0.000000D+00  0.000000D+00  0.000000D+00  0.217833D+01
      6  0.899505D-01  0.306718D+00  0.000000D+00  0.000000D+00  0.000000D+00
      7  0.000000D+00  0.000000D+00  0.376673D+00  0.000000D+00  0.000000D+00
      8  0.000000D+00  0.000000D+00  0.000000D+00  0.376673D+00  0.000000D+00
      9  0.000000D+00  0.000000D+00  0.000000D+00  0.000000D+00  0.376673D+00
     10  0.907972D-02  0.486595D-01  0.000000D+00  0.000000D+00  0.000000D+00
     11  0.000000D+00  0.000000D+00  0.335613D-01  0.000000D+00  0.000000D+00
     12  0.000000D+00  0.000000D+00  0.000000D+00  0.335613D-01  0.000000D+00
     13  0.000000D+00  0.000000D+00  0.000000D+00  0.000000D+00  0.335613D-01
     14 -0.524817D+00  0.520042D+00  0.000000D+00  0.000000D+00  0.000000D+00
     15 -0.524817D+00  0.520042D+00  0.000000D+00  0.000000D+00  0.000000D+00
     16 -0.524817D+00  0.520042D+00  0.000000D+00  0.000000D+00  0.000000D+00
     17  0.000000D+00  0.000000D+00  0.000000D+00  0.000000D+00  0.000000D+00
     18  0.000000D+00  0.000000D+00  0.000000D+00  0.000000D+00  0.000000D+00
     19  0.000000D+00  0.000000D+00  0.000000D+00  0.000000D+00  0.000000D+00
     20 -0.135413D-03 -0.305582D-01  0.301757D-01  0.000000D+00  0.000000D+00
     21 -0.305582D-01 -0.692999D-02 -0.114122D+00  0.000000D+00  0.000000D+00
     22 -0.301757D-01  0.114122D+00 -0.341734D+00  0.000000D+00  0.000000D+00
     23  0.000000D+00  0.000000D+00  0.000000D+00  0.325781D-01  0.000000D+00
     24  0.000000D+00  0.000000D+00  0.000000D+00  0.000000D+00  0.325781D-01
     25  0.938145D-02  0.623760D-01 -0.109871D+00  0.000000D+00  0.000000D+00
     26  0.610677D-01  0.239367D+00 -0.183669D+00  0.000000D+00  0.000000D+00
     27  0.000000D+00  0.000000D+00  0.000000D+00  0.105202D+00  0.000000D+00
     28  0.000000D+00  0.000000D+00  0.000000D+00  0.000000D+00  0.105202D+00
     29  0.557685D-02  0.309754D-01 -0.122746D-01  0.000000D+00  0.000000D+00
     30  0.106981D-01  0.548491D-01  0.547132D-02  0.000000D+00  0.000000D+00
     31  0.000000D+00  0.000000D+00  0.000000D+00  0.230668D-01  0.000000D+00
     32  0.000000D+00  0.000000D+00  0.000000D+00  0.000000D+00  0.230668D-01
     33 -0.759879D-01  0.185459D+00 -0.484409D+00  0.000000D+00  0.000000D+00
     34 -0.120047D-01 -0.702841D-01  0.455959D-01  0.000000D+00  0.000000D+00
     35 -0.120047D-01 -0.702841D-01  0.455959D-01  0.000000D+00  0.000000D+00
     36  0.000000D+00  0.000000D+00  0.000000D+00  0.142615D+00  0.000000D+00
     37  0.000000D+00  0.000000D+00  0.000000D+00  0.000000D+00  0.142615D+00
     38  0.000000D+00  0.000000D+00  0.000000D+00  0.000000D+00  0.000000D+00
     39 -0.348075D-01  0.397961D-01  0.121109D+00  0.344974D-01  0.195645D+00
     40  0.237890D-01  0.113380D+00  0.687449D-01  0.195818D-01  0.111054D+00
     41 -0.348075D-01  0.397961D-01  0.121109D+00 -0.344974D-01 -0.195645D+00
     42  0.237890D-01  0.113380D+00  0.687449D-01 -0.195818D-01 -0.111054D+00
     43 -0.349041D-03 -0.153574D-01  0.222209D-01 -0.188322D-02 -0.106803D-01
     44 -0.456069D-02 -0.130735D-01 -0.113744D-01  0.963976D-03  0.546699D-02
     45 -0.349041D-03 -0.153574D-01  0.222209D-01  0.188322D-02  0.106803D-01
     46 -0.456069D-02 -0.130735D-01 -0.113744D-01 -0.963976D-03 -0.546699D-02
                6             7             8             9            10
      6  0.253072D+00
      7  0.000000D+00  0.421786D+00
      8  0.000000D+00  0.000000D+00  0.421786D+00
      9  0.000000D+00  0.000000D+00  0.000000D+00  0.421786D+00
     10  0.759086D-01  0.000000D+00  0.000000D+00  0.000000D+00  0.657000D-01
     11  0.000000D+00  0.102352D+00  0.000000D+00  0.000000D+00  0.000000D+00
     12  0.000000D+00  0.000000D+00  0.102352D+00  0.000000D+00  0.000000D+00
     13  0.000000D+00  0.000000D+00  0.000000D+00  0.102352D+00  0.000000D+00
     14  0.226288D+00  0.000000D+00  0.000000D+00  0.000000D+00  0.388353D-01
     15  0.226288D+00  0.000000D+00  0.000000D+00  0.000000D+00  0.388353D-01
     16  0.226288D+00  0.000000D+00  0.000000D+00  0.000000D+00  0.388353D-01
     17  0.000000D+00  0.000000D+00  0.000000D+00  0.000000D+00  0.000000D+00
     18  0.000000D+00  0.000000D+00  0.000000D+00  0.000000D+00  0.000000D+00
     19  0.000000D+00  0.000000D+00  0.000000D+00  0.000000D+00  0.000000D+00
     20  0.938145D-02 -0.610677D-01  0.000000D+00  0.000000D+00  0.557685D-02
     21  0.623760D-01 -0.239367D+00  0.000000D+00  0.000000D+00  0.309754D-01
     22  0.109871D+00 -0.183669D+00  0.000000D+00  0.000000D+00  0.122746D-01
     23  0.000000D+00  0.000000D+00  0.105202D+00  0.000000D+00  0.000000D+00
     24  0.000000D+00  0.000000D+00  0.000000D+00  0.105202D+00  0.000000D+00
     25  0.933559D-01 -0.199631D+00  0.000000D+00  0.000000D+00  0.515403D-01
     26  0.199631D+00 -0.124007D+00  0.000000D+00  0.000000D+00  0.395879D-01
     27  0.000000D+00  0.000000D+00  0.191148D+00  0.000000D+00  0.000000D+00
     28  0.000000D+00  0.000000D+00  0.000000D+00  0.191148D+00  0.000000D+00
     29  0.515403D-01 -0.395879D-01  0.000000D+00  0.000000D+00  0.516439D-01
     30  0.776965D-01  0.262452D-01  0.000000D+00  0.000000D+00  0.477118D-01
     31  0.000000D+00  0.000000D+00  0.743949D-01  0.000000D+00  0.000000D+00
     32  0.000000D+00  0.000000D+00  0.000000D+00  0.743949D-01  0.000000D+00
     33  0.981193D-01 -0.204141D+00  0.000000D+00  0.000000D+00  0.261278D-01
     34  0.276945D-01 -0.170788D+00  0.000000D+00  0.000000D+00  0.241761D-01
     35  0.276945D-01 -0.170788D+00  0.000000D+00  0.000000D+00  0.241761D-01
     36  0.000000D+00  0.000000D+00  0.116796D+00  0.000000D+00  0.000000D+00
     37  0.000000D+00  0.000000D+00  0.000000D+00  0.116796D+00  0.000000D+00
     38  0.000000D+00  0.000000D+00  0.000000D+00  0.000000D+00  0.000000D+00
     39  0.934993D-01  0.140040D+00  0.398899D-01  0.226227D+00  0.281911D-01
     40  0.132860D+00  0.107524D+00  0.306280D-01  0.173700D+00  0.596677D-01
     41  0.934993D-01  0.140040D+00 -0.398899D-01 -0.226227D+00  0.281911D-01
     42  0.132860D+00  0.107524D+00 -0.306280D-01 -0.173700D+00  0.596677D-01
     43 -0.141416D-01 -0.138973D-01  0.117779D-02  0.667957D-02  0.108285D-01
     44  0.702831D-02 -0.730942D-01  0.619471D-02  0.351320D-01  0.275201D-01
     45 -0.141416D-01 -0.138973D-01 -0.117779D-02 -0.667957D-02  0.108285D-01
     46  0.702831D-02 -0.730942D-01 -0.619471D-02 -0.351320D-01  0.275201D-01
               11            12            13            14            15
     11  0.109500D+00
     12  0.000000D+00  0.109500D+00
     13  0.000000D+00  0.000000D+00  0.109500D+00
     14  0.000000D+00  0.000000D+00  0.000000D+00  0.173333D+01
     15  0.000000D+00  0.000000D+00  0.000000D+00 -0.133333D+00  0.173333D+01
     16  0.000000D+00  0.000000D+00  0.000000D+00 -0.133333D+00 -0.133333D+00
     17  0.000000D+00  0.000000D+00  0.000000D+00  0.000000D+00  0.000000D+00
     18  0.000000D+00  0.000000D+00  0.000000D+00  0.000000D+00  0.000000D+00
     19  0.000000D+00  0.000000D+00  0.000000D+00  0.000000D+00  0.000000D+00
     20 -0.106981D-01  0.000000D+00  0.000000D+00 -0.759879D-01 -0.120047D-01
     21 -0.548491D-01  0.000000D+00  0.000000D+00  0.185459D+00 -0.702841D-01
     22  0.547132D-02  0.000000D+00  0.000000D+00  0.484409D+00 -0.455959D-01
     23  0.000000D+00  0.230668D-01  0.000000D+00  0.000000D+00  0.000000D+00
     24  0.000000D+00  0.000000D+00  0.230668D-01  0.000000D+00  0.000000D+00
     25 -0.776965D-01  0.000000D+00  0.000000D+00  0.981193D-01  0.276945D-01
     26  0.262452D-01  0.000000D+00  0.000000D+00  0.204141D+00  0.170788D+00
     27  0.000000D+00  0.743949D-01  0.000000D+00  0.000000D+00  0.000000D+00
     28  0.000000D+00  0.000000D+00  0.743949D-01  0.000000D+00  0.000000D+00
     29 -0.477118D-01  0.000000D+00  0.000000D+00  0.261278D-01  0.241761D-01
     30  0.535074D-01  0.000000D+00  0.000000D+00  0.403672D-01  0.451237D-01
     31  0.000000D+00  0.896616D-01  0.000000D+00  0.000000D+00  0.000000D+00
     32  0.000000D+00  0.000000D+00  0.896616D-01  0.000000D+00  0.000000D+00
     33 -0.403672D-01  0.000000D+00  0.000000D+00  0.727180D+00 -0.709162D-01
     34 -0.451237D-01  0.000000D+00  0.000000D+00 -0.709162D-01 -0.252666D-01
     35 -0.451237D-01  0.000000D+00  0.000000D+00 -0.709162D-01 -0.619851D-01
     36  0.000000D+00  0.635248D-02  0.000000D+00  0.000000D+00  0.000000D+00
     37  0.000000D+00  0.000000D+00  0.635248D-02  0.000000D+00  0.000000D+00
     38  0.000000D+00  0.000000D+00  0.000000D+00  0.000000D+00  0.000000D+00
     39  0.209881D-01  0.597839D-02  0.339052D-01  0.366391D-01 -0.750723D-01
     40  0.367895D-01  0.104794D-01  0.594317D-01  0.851470D-01  0.693179D-01
     41  0.209881D-01 -0.597839D-02 -0.339052D-01  0.366391D-01 -0.750723D-01
     42  0.367895D-01 -0.104794D-01 -0.594317D-01  0.851470D-01  0.693179D-01
     43 -0.339886D-01  0.288052D-02  0.163363D-01 -0.261710D-01 -0.599929D-02
     44 -0.676243D-01  0.573113D-02  0.325029D-01  0.111357D-02 -0.164752D-01
     45 -0.339886D-01 -0.288052D-02 -0.163363D-01 -0.261710D-01 -0.599929D-02
     46 -0.676243D-01 -0.573113D-02 -0.325029D-01  0.111357D-02 -0.164752D-01
               16            17            18            19            20
     16  0.173333D+01
     17  0.000000D+00  0.280000D+01
     18  0.000000D+00  0.000000D+00  0.280000D+01
     19  0.000000D+00  0.000000D+00  0.000000D+00  0.280000D+01
     20 -0.120047D-01  0.000000D+00  0.000000D+00  0.000000D+00  0.162076D+02
     21 -0.702841D-01  0.000000D+00  0.000000D+00  0.000000D+00 -0.124757D+01
     22 -0.455959D-01  0.000000D+00  0.000000D+00  0.000000D+00  0.000000D+00
     23  0.000000D+00 -0.142615D+00  0.000000D+00  0.000000D+00  0.000000D+00
     24  0.000000D+00  0.000000D+00 -0.142615D+00  0.000000D+00  0.000000D+00
     25  0.276945D-01  0.000000D+00  0.000000D+00  0.000000D+00  0.899505D-01
     26  0.170788D+00  0.000000D+00  0.000000D+00  0.000000D+00  0.000000D+00
     27  0.000000D+00 -0.116796D+00  0.000000D+00  0.000000D+00  0.000000D+00
     28  0.000000D+00  0.000000D+00 -0.116796D+00  0.000000D+00  0.000000D+00
     29  0.241761D-01  0.000000D+00  0.000000D+00  0.000000D+00  0.907972D-02
     30  0.451237D-01  0.000000D+00  0.000000D+00  0.000000D+00  0.000000D+00
     31  0.000000D+00 -0.635248D-02  0.000000D+00  0.000000D+00  0.000000D+00
     32  0.000000D+00  0.000000D+00 -0.635248D-02  0.000000D+00  0.000000D+00
     33 -0.709162D-01  0.000000D+00  0.000000D+00  0.000000D+00 -0.524817D+00
     34 -0.619851D-01  0.000000D+00  0.000000D+00  0.000000D+00 -0.524817D+00
     35 -0.252666D-01  0.000000D+00  0.000000D+00  0.000000D+00 -0.524817D+00
     36  0.000000D+00 -0.541434D+00  0.000000D+00  0.000000D+00  0.000000D+00
     37  0.000000D+00  0.000000D+00 -0.541434D+00  0.000000D+00  0.000000D+00
     38  0.000000D+00  0.000000D+00  0.000000D+00  0.550777D-01  0.000000D+00
     39  0.232338D+00  0.599819D-01  0.340175D+00  0.968978D-01 -0.349041D-03
     40  0.112877D+00  0.849921D-02  0.482015D-01  0.137301D-01 -0.456069D-02
     41  0.232338D+00 -0.599819D-01 -0.340175D+00  0.968978D-01 -0.349041D-03
     42  0.112877D+00 -0.849921D-02 -0.482015D-01  0.137301D-01 -0.456069D-02
     43 -0.105470D-01  0.298245D-02  0.169143D-01 -0.143348D-02 -0.348075D-01
     44 -0.125098D-01 -0.260055D-02 -0.147485D-01  0.124993D-02  0.237890D-01
     45 -0.105470D-01 -0.298245D-02 -0.169143D-01 -0.143348D-02 -0.348075D-01
     46 -0.125098D-01  0.260055D-02  0.147485D-01  0.124993D-02  0.237890D-01
               21            22            23            24            25
     21  0.932246D+00
     22  0.000000D+00  0.217833D+01
     23  0.000000D+00  0.000000D+00  0.217833D+01
     24  0.000000D+00  0.000000D+00  0.000000D+00  0.217833D+01
     25  0.306718D+00  0.000000D+00  0.000000D+00  0.000000D+00  0.253072D+00
     26  0.000000D+00  0.376673D+00  0.000000D+00  0.000000D+00  0.000000D+00
     27  0.000000D+00  0.000000D+00  0.376673D+00  0.000000D+00  0.000000D+00
     28  0.000000D+00  0.000000D+00  0.000000D+00  0.376673D+00  0.000000D+00
     29  0.486595D-01  0.000000D+00  0.000000D+00  0.000000D+00  0.759086D-01
     30  0.000000D+00  0.335613D-01  0.000000D+00  0.000000D+00  0.000000D+00
     31  0.000000D+00  0.000000D+00  0.335613D-01  0.000000D+00  0.000000D+00
     32  0.000000D+00  0.000000D+00  0.000000D+00  0.335613D-01  0.000000D+00
     33  0.520042D+00  0.000000D+00  0.000000D+00  0.000000D+00  0.226288D+00
     34  0.520042D+00  0.000000D+00  0.000000D+00  0.000000D+00  0.226288D+00
     35  0.520042D+00  0.000000D+00  0.000000D+00  0.000000D+00  0.226288D+00
     36  0.000000D+00  0.000000D+00  0.000000D+00  0.000000D+00  0.000000D+00
     37  0.000000D+00  0.000000D+00  0.000000D+00  0.000000D+00  0.000000D+00
     38  0.000000D+00  0.000000D+00  0.000000D+00  0.000000D+00  0.000000D+00
     39 -0.153574D-01 -0.222209D-01 -0.188322D-02 -0.106803D-01 -0.141416D-01
     40 -0.130735D-01  0.113744D-01  0.963976D-03  0.546699D-02  0.702831D-02
     41 -0.153574D-01 -0.222209D-01  0.188322D-02  0.106803D-01 -0.141416D-01
     42 -0.130735D-01  0.113744D-01 -0.963976D-03 -0.546699D-02  0.702831D-02
     43  0.397961D-01 -0.121109D+00  0.344974D-01  0.195645D+00  0.934993D-01
     44  0.113380D+00 -0.687449D-01  0.195818D-01  0.111054D+00  0.132860D+00
     45  0.397961D-01 -0.121109D+00 -0.344974D-01 -0.195645D+00  0.934993D-01
     46  0.113380D+00 -0.687449D-01 -0.195818D-01 -0.111054D+00  0.132860D+00
               26            27            28            29            30
     26  0.421786D+00
     27  0.000000D+00  0.421786D+00
     28  0.000000D+00  0.000000D+00  0.421786D+00
     29  0.000000D+00  0.000000D+00  0.000000D+00  0.657000D-01
     30  0.102352D+00  0.000000D+00  0.000000D+00  0.000000D+00  0.109500D+00
     31  0.000000D+00  0.102352D+00  0.000000D+00  0.000000D+00  0.000000D+00
     32  0.000000D+00  0.000000D+00  0.102352D+00  0.000000D+00  0.000000D+00
     33  0.000000D+00  0.000000D+00  0.000000D+00  0.388353D-01  0.000000D+00
     34  0.000000D+00  0.000000D+00  0.000000D+00  0.388353D-01  0.000000D+00
     35  0.000000D+00  0.000000D+00  0.000000D+00  0.388353D-01  0.000000D+00
     36  0.000000D+00  0.000000D+00  0.000000D+00  0.000000D+00  0.000000D+00
     37  0.000000D+00  0.000000D+00  0.000000D+00  0.000000D+00  0.000000D+00
     38  0.000000D+00  0.000000D+00  0.000000D+00  0.000000D+00  0.000000D+00
     39  0.138973D-01  0.117779D-02  0.667957D-02  0.108285D-01  0.339886D-01
     40  0.730942D-01  0.619471D-02  0.351320D-01  0.275201D-01  0.676243D-01
     41  0.138973D-01 -0.117779D-02 -0.667957D-02  0.108285D-01  0.339886D-01
     42  0.730942D-01 -0.619471D-02 -0.351320D-01  0.275201D-01  0.676243D-01
     43 -0.140040D+00  0.398899D-01  0.226227D+00  0.281911D-01 -0.209881D-01
     44 -0.107524D+00  0.306280D-01  0.173700D+00  0.596677D-01 -0.367895D-01
     45 -0.140040D+00 -0.398899D-01 -0.226227D+00  0.281911D-01 -0.209881D-01
     46 -0.107524D+00 -0.306280D-01 -0.173700D+00  0.596677D-01 -0.367895D-01
               31            32            33            34            35
     31  0.109500D+00
     32  0.000000D+00  0.109500D+00
     33  0.000000D+00  0.000000D+00  0.173333D+01
     34  0.000000D+00  0.000000D+00 -0.133333D+00  0.173333D+01
     35  0.000000D+00  0.000000D+00 -0.133333D+00 -0.133333D+00  0.173333D+01
     36  0.000000D+00  0.000000D+00  0.000000D+00  0.000000D+00  0.000000D+00
     37  0.000000D+00  0.000000D+00  0.000000D+00  0.000000D+00  0.000000D+00
     38  0.000000D+00  0.000000D+00  0.000000D+00  0.000000D+00  0.000000D+00
     39  0.288052D-02  0.163363D-01 -0.261710D-01 -0.599929D-02 -0.105470D-01
     40  0.573113D-02  0.325029D-01  0.111357D-02 -0.164752D-01 -0.125098D-01
     41 -0.288052D-02 -0.163363D-01 -0.261710D-01 -0.599929D-02 -0.105470D-01
     42 -0.573113D-02 -0.325029D-01  0.111357D-02 -0.164752D-01 -0.125098D-01
     43  0.597839D-02  0.339052D-01  0.366391D-01 -0.750723D-01  0.232338D+00
     44  0.104794D-01  0.594317D-01  0.851470D-01  0.693179D-01  0.112877D+00
     45 -0.597839D-02 -0.339052D-01  0.366391D-01 -0.750723D-01  0.232338D+00
     46 -0.104794D-01 -0.594317D-01  0.851470D-01  0.693179D-01  0.112877D+00
               36            37            38            39            40
     36  0.280000D+01
     37  0.000000D+00  0.280000D+01
     38  0.000000D+00  0.000000D+00  0.280000D+01
     39 -0.298245D-02 -0.169143D-01 -0.143348D-02  0.139568D+01
     40  0.260055D-02  0.147485D-01  0.124993D-02  0.259735D+00  0.241917D+00
     41  0.298245D-02  0.169143D-01 -0.143348D-02 -0.215317D-01 -0.462456D-02
     42 -0.260055D-02 -0.147485D-01  0.124993D-02 -0.462456D-02  0.290837D-01
     43 -0.599819D-01 -0.340175D+00  0.968978D-01 -0.205251D-02 -0.132355D-01
     44 -0.849921D-02 -0.482015D-01  0.137301D-01 -0.132355D-01 -0.758808D-02
     45  0.599819D-01  0.340175D+00  0.968978D-01 -0.641179D-04 -0.562452D-02
     46  0.849921D-02  0.482015D-01  0.137301D-01 -0.562452D-02 -0.127923D-01
               41            42            43            44            45
     41  0.139568D+01
     42  0.259735D+00  0.241917D+00
     43 -0.641179D-04 -0.562452D-02  0.139568D+01
     44 -0.562452D-02 -0.127923D-01  0.259735D+00  0.241917D+00
     45 -0.205251D-02 -0.132355D-01 -0.215317D-01 -0.462456D-02  0.139568D+01
     46 -0.132355D-01 -0.758808D-02 -0.462456D-02  0.290837D-01  0.259735D+00
               46
     46  0.241917D+00
 Entering OneElI...
 Calculate potential energy integrals
    NBasis =  46  MinDer = 0  MaxDer = 0
 Requested accuracy = 0.1000D-12
 PrsmSu:  NPrtUS=   2 ThrOK=T
 PRISM was handed    67084529 working-precision words and   171 shell-pairs
 PRISM was handed    67084529 working-precision words and   171 shell-pairs
 ***** Potential Energy ***** 
                1             2             3             4             5
      1  0.379758D+02
      2  0.325034D+01  0.954109D+01
      3 -0.754548D-01 -0.547415D+00  0.103022D+02
      4  0.000000D+00  0.000000D+00  0.000000D+00  0.986663D+01
      5  0.000000D+00  0.000000D+00  0.000000D+00  0.269534D-01  0.100147D+02
      6  0.395732D+01  0.722449D+01 -0.552654D+00  0.000000D+00  0.000000D+00
      7 -0.126759D-01 -0.400277D+00  0.477705D+01  0.000000D+00  0.000000D+00
      8  0.000000D+00  0.000000D+00  0.000000D+00  0.434437D+01  0.232451D-01
      9  0.000000D+00  0.000000D+00  0.000000D+00  0.232451D-01  0.447210D+01
     10  0.147551D+01  0.340376D+01 -0.309548D+00  0.000000D+00  0.000000D+00
     11 -0.255468D-02 -0.119276D+00  0.131075D+01  0.000000D+00  0.000000D+00
     12  0.000000D+00  0.000000D+00  0.000000D+00  0.116991D+01  0.701585D-02
     13  0.000000D+00  0.000000D+00  0.000000D+00  0.701585D-02  0.120846D+01
     14  0.113282D+01  0.647992D+01 -0.898759D+00  0.000000D+00  0.000000D+00
     15  0.112142D+01  0.611545D+01 -0.223972D+00  0.000000D+00  0.000000D+00
     16  0.112552D+01  0.624207D+01 -0.168372D+00  0.000000D+00  0.000000D+00
     17  0.000000D+00  0.000000D+00  0.000000D+00 -0.387930D+00  0.175253D-01
     18  0.000000D+00  0.000000D+00  0.000000D+00  0.175253D-01 -0.291630D+00
     19  0.129200D-02  0.399098D-01  0.175253D-01  0.000000D+00  0.000000D+00
     20  0.522031D-04  0.386654D+00 -0.877428D+00  0.000000D+00  0.000000D+00
     21  0.386654D+00  0.199166D+01 -0.281338D+01  0.000000D+00  0.000000D+00
     22  0.877428D+00  0.281338D+01 -0.340456D+01  0.000000D+00  0.000000D+00
     23  0.000000D+00  0.000000D+00  0.000000D+00  0.100924D+01  0.146232D-02
     24  0.000000D+00  0.000000D+00  0.000000D+00  0.146232D-02  0.101728D+01
     25  0.136689D+01  0.330447D+01 -0.247836D+01  0.000000D+00  0.000000D+00
     26  0.278636D+01  0.511865D+01 -0.180210D+01  0.000000D+00  0.000000D+00
     27  0.000000D+00  0.000000D+00  0.000000D+00  0.188492D+01  0.624981D-02
     28  0.000000D+00  0.000000D+00  0.000000D+00  0.624981D-02  0.191926D+01
     29  0.111456D+01  0.266567D+01 -0.785103D+00  0.000000D+00  0.000000D+00
     30  0.117714D+01  0.254173D+01  0.270952D+00  0.000000D+00  0.000000D+00
     31  0.000000D+00  0.000000D+00  0.000000D+00  0.909351D+00  0.477476D-02
     32  0.000000D+00  0.000000D+00  0.000000D+00  0.477476D-02  0.935588D+00
     33  0.104713D+01  0.335754D+01 -0.421660D+01  0.000000D+00  0.000000D+00
     34  0.142101D-01  0.809367D+00 -0.125671D+01  0.000000D+00  0.000000D+00
     35  0.142453D-01  0.815272D+00 -0.126651D+01  0.000000D+00  0.000000D+00
     36  0.000000D+00  0.000000D+00  0.000000D+00  0.162993D+01  0.171035D-02
     37  0.000000D+00  0.000000D+00  0.000000D+00  0.171035D-02  0.163933D+01
     38  0.110785D-04  0.186123D-02 -0.308909D-02  0.000000D+00  0.000000D+00
     39  0.638256D+00  0.217119D+01  0.142181D+01  0.420519D+00  0.238489D+01
     40  0.194661D+01  0.400503D+01  0.800305D+00  0.298664D+00  0.169381D+01
     41  0.638256D+00  0.217119D+01  0.142181D+01 -0.420519D+00 -0.238489D+01
     42  0.194661D+01  0.400503D+01  0.800305D+00 -0.298664D+00 -0.169381D+01
     43  0.655155D-03  0.713886D-01 -0.140069D+00  0.100577D-01  0.570402D-01
     44  0.297634D+00  0.991751D+00 -0.963411D+00  0.668037D-01  0.378863D+00
     45  0.655155D-03  0.713886D-01 -0.140069D+00 -0.100577D-01 -0.570402D-01
     46  0.297634D+00  0.991751D+00 -0.963411D+00 -0.668037D-01 -0.378863D+00
                6             7             8             9            10
      6  0.758242D+01
      7 -0.834042D+00  0.660462D+01
      8  0.000000D+00  0.000000D+00  0.561668D+01
      9  0.000000D+00  0.000000D+00  0.396464D-01  0.583454D+01
     10  0.475783D+01 -0.752131D+00  0.000000D+00  0.000000D+00  0.472988D+01
     11 -0.383225D+00  0.329621D+01  0.000000D+00  0.000000D+00 -0.585647D+00
     12  0.000000D+00  0.000000D+00  0.279184D+01  0.180232D-01  0.000000D+00
     13  0.000000D+00  0.000000D+00  0.180232D-01  0.289087D+01  0.000000D+00
     14  0.542661D+01 -0.781272D+00  0.000000D+00  0.000000D+00  0.270085D+01
     15  0.500957D+01 -0.171675D+00  0.000000D+00  0.000000D+00  0.246225D+01
     16  0.514463D+01 -0.118479D+00  0.000000D+00  0.000000D+00  0.253622D+01
     17  0.000000D+00  0.000000D+00 -0.297349D+00  0.167675D-01  0.000000D+00
     18  0.000000D+00  0.000000D+00  0.167675D-01 -0.205212D+00  0.000000D+00
     19  0.425741D-01  0.167675D-01  0.000000D+00  0.000000D+00  0.233159D-01
     20  0.136689D+01 -0.278636D+01  0.000000D+00  0.000000D+00  0.111456D+01
     21  0.330447D+01 -0.511865D+01  0.000000D+00  0.000000D+00  0.266567D+01
     22  0.247836D+01 -0.180210D+01  0.000000D+00  0.000000D+00  0.785103D+00
     23  0.000000D+00  0.000000D+00  0.188492D+01  0.624981D-02  0.000000D+00
     24  0.000000D+00  0.000000D+00  0.624981D-02  0.191926D+01  0.000000D+00
     25  0.462658D+01 -0.483190D+01  0.000000D+00  0.000000D+00  0.393010D+01
     26  0.483190D+01 -0.791981D+00  0.000000D+00  0.000000D+00  0.204894D+01
     27  0.000000D+00  0.000000D+00  0.340348D+01  0.169861D-01  0.000000D+00
     28  0.000000D+00  0.000000D+00  0.169861D-01  0.349682D+01  0.000000D+00
     29  0.393010D+01 -0.204894D+01  0.000000D+00  0.000000D+00  0.424426D+01
     30  0.313869D+01  0.105859D+01  0.000000D+00  0.000000D+00  0.225851D+01
     31  0.000000D+00  0.000000D+00  0.228591D+01  0.135837D-01  0.000000D+00
     32  0.000000D+00  0.000000D+00  0.135837D-01  0.236055D+01  0.000000D+00
     33  0.336089D+01 -0.384177D+01  0.000000D+00  0.000000D+00  0.221838D+01
     34  0.207685D+01 -0.356819D+01  0.000000D+00  0.000000D+00  0.190046D+01
     35  0.211225D+01 -0.364422D+01  0.000000D+00  0.000000D+00  0.195082D+01
     36  0.000000D+00  0.000000D+00  0.133342D+01 -0.660606D-03  0.000000D+00
     37  0.000000D+00  0.000000D+00 -0.660606D-03  0.132979D+01  0.000000D+00
     38  0.111572D-01 -0.239653D-01  0.000000D+00  0.000000D+00  0.158743D-01
     39  0.258655D+01  0.162733D+01  0.478929D+00  0.271614D+01  0.161802D+01
     40  0.472949D+01  0.126362D+01  0.465724D+00  0.264126D+01  0.346403D+01
     41  0.258655D+01  0.162733D+01 -0.478929D+00 -0.271614D+01  0.161802D+01
     42  0.472949D+01  0.126362D+01 -0.465724D+00 -0.264126D+01  0.346403D+01
     43  0.547348D+00 -0.128160D+01  0.980297D-01  0.555955D+00  0.101390D+01
     44  0.195009D+01 -0.276773D+01  0.185668D+00  0.105298D+01  0.243420D+01
     45  0.547348D+00 -0.128160D+01 -0.980297D-01 -0.555955D+00  0.101390D+01
     46  0.195009D+01 -0.276773D+01 -0.185668D+00 -0.105298D+01  0.243420D+01
               11            12            13            14            15
     11  0.374321D+01
     12  0.000000D+00  0.330303D+01
     13  0.000000D+00  0.143403D-01  0.338182D+01
     14 -0.236087D+00  0.000000D+00  0.000000D+00  0.887461D+01
     15 -0.497932D-01  0.000000D+00  0.000000D+00  0.278587D+01  0.804084D+01
     16 -0.341804D-01  0.000000D+00  0.000000D+00  0.284823D+01  0.271510D+01
     17  0.000000D+00 -0.862443D-01  0.492123D-02  0.000000D+00  0.000000D+00
     18  0.000000D+00  0.492123D-02 -0.592023D-01  0.000000D+00  0.000000D+00
     19  0.492123D-02  0.000000D+00  0.000000D+00  0.196567D-01  0.313950D-01
     20 -0.117714D+01  0.000000D+00  0.000000D+00  0.104713D+01  0.142101D-01
     21 -0.254173D+01  0.000000D+00  0.000000D+00  0.335754D+01  0.809367D+00
     22  0.270952D+00  0.000000D+00  0.000000D+00  0.421660D+01  0.125671D+01
     23  0.000000D+00  0.909351D+00  0.477476D-02  0.000000D+00  0.000000D+00
     24  0.000000D+00  0.477476D-02  0.935588D+00  0.000000D+00  0.000000D+00
     25 -0.313869D+01  0.000000D+00  0.000000D+00  0.336089D+01  0.207685D+01
     26  0.105859D+01  0.000000D+00  0.000000D+00  0.384177D+01  0.356819D+01
     27  0.000000D+00  0.228591D+01  0.135837D-01  0.000000D+00  0.000000D+00
     28  0.000000D+00  0.135837D-01  0.236055D+01  0.000000D+00  0.000000D+00
     29 -0.225851D+01  0.000000D+00  0.000000D+00  0.221838D+01  0.190046D+01
     30  0.203658D+01  0.000000D+00  0.000000D+00  0.183978D+01  0.188812D+01
     31  0.000000D+00  0.293024D+01  0.128030D-01  0.000000D+00  0.000000D+00
     32  0.000000D+00  0.128030D-01  0.300059D+01  0.000000D+00  0.000000D+00
     33 -0.183978D+01  0.000000D+00  0.000000D+00  0.488618D+01  0.140860D+01
     34 -0.188812D+01  0.000000D+00  0.000000D+00  0.140860D+01  0.607544D+00
     35 -0.195022D+01  0.000000D+00  0.000000D+00  0.141717D+01  0.203565D+00
     36  0.000000D+00  0.232906D+00 -0.267811D-02  0.000000D+00  0.000000D+00
     37  0.000000D+00 -0.267811D-02  0.218189D+00  0.000000D+00  0.000000D+00
     38 -0.195726D-01  0.000000D+00  0.000000D+00  0.270064D-02  0.981514D-03
     39  0.606426D+00  0.178180D+00  0.101051D+01  0.155326D+01  0.946776D+00
     40  0.790796D+00  0.277723D+00  0.157505D+01  0.296063D+01  0.270936D+01
     41  0.606426D+00 -0.178180D+00 -0.101051D+01  0.155326D+01  0.946776D+00
     42  0.790796D+00 -0.277723D+00 -0.157505D+01  0.296063D+01  0.270936D+01
     43 -0.140107D+01  0.110896D+00  0.628922D+00  0.135129D+00  0.138409D-01
     44 -0.267289D+01  0.191688D+00  0.108712D+01  0.114867D+01  0.567295D+00
     45 -0.140107D+01 -0.110896D+00 -0.628922D+00  0.135129D+00  0.138409D-01
     46 -0.267289D+01 -0.191688D+00 -0.108712D+01  0.114867D+01  0.567295D+00
               16            17            18            19            20
     16  0.831360D+01
     17  0.000000D+00  0.835760D+01
     18  0.000000D+00  0.340464D-01  0.854469D+01
     19  0.545796D-01  0.000000D+00  0.000000D+00  0.814531D+01
     20  0.142453D-01  0.000000D+00  0.000000D+00  0.110785D-04  0.379758D+02
     21  0.815272D+00  0.000000D+00  0.000000D+00  0.186123D-02  0.325034D+01
     22  0.126651D+01  0.000000D+00  0.000000D+00  0.308909D-02  0.754548D-01
     23  0.000000D+00 -0.162993D+01 -0.171035D-02  0.000000D+00  0.000000D+00
     24  0.000000D+00 -0.171035D-02 -0.163933D+01  0.000000D+00  0.000000D+00
     25  0.211225D+01  0.000000D+00  0.000000D+00  0.111572D-01  0.395732D+01
     26  0.364422D+01  0.000000D+00  0.000000D+00  0.239653D-01  0.126759D-01
     27  0.000000D+00 -0.133342D+01  0.660606D-03  0.000000D+00  0.000000D+00
     28  0.000000D+00  0.660606D-03 -0.132979D+01  0.000000D+00  0.000000D+00
     29  0.195082D+01  0.000000D+00  0.000000D+00  0.158743D-01  0.147551D+01
     30  0.195022D+01  0.000000D+00  0.000000D+00  0.195726D-01  0.255468D-02
     31  0.000000D+00 -0.232906D+00  0.267811D-02  0.000000D+00  0.000000D+00
     32  0.000000D+00  0.267811D-02 -0.218189D+00  0.000000D+00  0.000000D+00
     33  0.141717D+01  0.000000D+00  0.000000D+00  0.270064D-02  0.113282D+01
     34  0.203565D+00  0.000000D+00  0.000000D+00  0.981514D-03  0.112142D+01
     35  0.614313D+00  0.000000D+00  0.000000D+00  0.115220D-02  0.112552D+01
     36  0.000000D+00 -0.278814D+01 -0.243877D-02  0.000000D+00  0.000000D+00
     37  0.000000D+00 -0.243877D-02 -0.280155D+01  0.000000D+00  0.000000D+00
     38  0.115220D-02  0.000000D+00  0.000000D+00  0.610694D+00  0.129200D-02
     39  0.270018D+01  0.329090D+00  0.186636D+01  0.552684D+00  0.655155D-03
     40  0.319103D+01  0.662472D-01  0.375707D+00  0.151827D+00  0.297634D+00
     41  0.270018D+01 -0.329090D+00 -0.186636D+01  0.552684D+00  0.655155D-03
     42  0.319103D+01 -0.662472D-01 -0.375707D+00  0.151827D+00  0.297634D+00
     43  0.342791D-01 -0.147474D-01 -0.836369D-01  0.644226D-02  0.638256D+00
     44  0.655604D+00 -0.591440D-01 -0.335423D+00  0.278355D-01  0.194661D+01
     45  0.342791D-01  0.147474D-01  0.836369D-01  0.644226D-02  0.638256D+00
     46  0.655604D+00  0.591440D-01  0.335423D+00  0.278355D-01  0.194661D+01
               21            22            23            24            25
     21  0.954109D+01
     22  0.547415D+00  0.103022D+02
     23  0.000000D+00  0.000000D+00  0.986663D+01
     24  0.000000D+00  0.000000D+00  0.269534D-01  0.100147D+02
     25  0.722449D+01  0.552654D+00  0.000000D+00  0.000000D+00  0.758242D+01
     26  0.400277D+00  0.477705D+01  0.000000D+00  0.000000D+00  0.834042D+00
     27  0.000000D+00  0.000000D+00  0.434437D+01  0.232451D-01  0.000000D+00
     28  0.000000D+00  0.000000D+00  0.232451D-01  0.447210D+01  0.000000D+00
     29  0.340376D+01  0.309548D+00  0.000000D+00  0.000000D+00  0.475783D+01
     30  0.119276D+00  0.131075D+01  0.000000D+00  0.000000D+00  0.383225D+00
     31  0.000000D+00  0.000000D+00  0.116991D+01  0.701585D-02  0.000000D+00
     32  0.000000D+00  0.000000D+00  0.701585D-02  0.120846D+01  0.000000D+00
     33  0.647992D+01  0.898759D+00  0.000000D+00  0.000000D+00  0.542661D+01
     34  0.611545D+01  0.223972D+00  0.000000D+00  0.000000D+00  0.500957D+01
     35  0.624207D+01  0.168372D+00  0.000000D+00  0.000000D+00  0.514463D+01
     36  0.000000D+00  0.000000D+00  0.387930D+00 -0.175253D-01  0.000000D+00
     37  0.000000D+00  0.000000D+00 -0.175253D-01  0.291630D+00  0.000000D+00
     38  0.399098D-01 -0.175253D-01  0.000000D+00  0.000000D+00  0.425741D-01
     39  0.713886D-01  0.140069D+00  0.100577D-01  0.570402D-01  0.547348D+00
     40  0.991751D+00  0.963411D+00  0.668037D-01  0.378863D+00  0.195009D+01
     41  0.713886D-01  0.140069D+00 -0.100577D-01 -0.570402D-01  0.547348D+00
     42  0.991751D+00  0.963411D+00 -0.668037D-01 -0.378863D+00  0.195009D+01
     43  0.217119D+01 -0.142181D+01  0.420519D+00  0.238489D+01  0.258655D+01
     44  0.400503D+01 -0.800305D+00  0.298664D+00  0.169381D+01  0.472949D+01
     45  0.217119D+01 -0.142181D+01 -0.420519D+00 -0.238489D+01  0.258655D+01
     46  0.400503D+01 -0.800305D+00 -0.298664D+00 -0.169381D+01  0.472949D+01
               26            27            28            29            30
     26  0.660462D+01
     27  0.000000D+00  0.561668D+01
     28  0.000000D+00  0.396464D-01  0.583454D+01
     29  0.752131D+00  0.000000D+00  0.000000D+00  0.472988D+01
     30  0.329621D+01  0.000000D+00  0.000000D+00  0.585647D+00  0.374321D+01
     31  0.000000D+00  0.279184D+01  0.180232D-01  0.000000D+00  0.000000D+00
     32  0.000000D+00  0.180232D-01  0.289087D+01  0.000000D+00  0.000000D+00
     33  0.781272D+00  0.000000D+00  0.000000D+00  0.270085D+01  0.236087D+00
     34  0.171675D+00  0.000000D+00  0.000000D+00  0.246225D+01  0.497932D-01
     35  0.118479D+00  0.000000D+00  0.000000D+00  0.253622D+01  0.341804D-01
     36  0.000000D+00  0.297349D+00 -0.167675D-01  0.000000D+00  0.000000D+00
     37  0.000000D+00 -0.167675D-01  0.205212D+00  0.000000D+00  0.000000D+00
     38 -0.167675D-01  0.000000D+00  0.000000D+00  0.233159D-01 -0.492123D-02
     39  0.128160D+01  0.980297D-01  0.555955D+00  0.101390D+01  0.140107D+01
     40  0.276773D+01  0.185668D+00  0.105298D+01  0.243420D+01  0.267289D+01
     41  0.128160D+01 -0.980297D-01 -0.555955D+00  0.101390D+01  0.140107D+01
     42  0.276773D+01 -0.185668D+00 -0.105298D+01  0.243420D+01  0.267289D+01
     43 -0.162733D+01  0.478929D+00  0.271614D+01  0.161802D+01 -0.606426D+00
     44 -0.126362D+01  0.465724D+00  0.264126D+01  0.346403D+01 -0.790796D+00
     45 -0.162733D+01 -0.478929D+00 -0.271614D+01  0.161802D+01 -0.606426D+00
     46 -0.126362D+01 -0.465724D+00 -0.264126D+01  0.346403D+01 -0.790796D+00
               31            32            33            34            35
     31  0.330303D+01
     32  0.143403D-01  0.338182D+01
     33  0.000000D+00  0.000000D+00  0.887461D+01
     34  0.000000D+00  0.000000D+00  0.278587D+01  0.804084D+01
     35  0.000000D+00  0.000000D+00  0.284823D+01  0.271510D+01  0.831360D+01
     36  0.862443D-01 -0.492123D-02  0.000000D+00  0.000000D+00  0.000000D+00
     37 -0.492123D-02  0.592023D-01  0.000000D+00  0.000000D+00  0.000000D+00
     38  0.000000D+00  0.000000D+00  0.196567D-01  0.313950D-01  0.545796D-01
     39  0.110896D+00  0.628922D+00  0.135129D+00  0.138409D-01  0.342791D-01
     40  0.191688D+00  0.108712D+01  0.114867D+01  0.567295D+00  0.655604D+00
     41 -0.110896D+00 -0.628922D+00  0.135129D+00  0.138409D-01  0.342791D-01
     42 -0.191688D+00 -0.108712D+01  0.114867D+01  0.567295D+00  0.655604D+00
     43  0.178180D+00  0.101051D+01  0.155326D+01  0.946776D+00  0.270018D+01
     44  0.277723D+00  0.157505D+01  0.296063D+01  0.270936D+01  0.319103D+01
     45 -0.178180D+00 -0.101051D+01  0.155326D+01  0.946776D+00  0.270018D+01
     46 -0.277723D+00 -0.157505D+01  0.296063D+01  0.270936D+01  0.319103D+01
               36            37            38            39            40
     36  0.835760D+01
     37  0.340464D-01  0.854469D+01
     38  0.000000D+00  0.000000D+00  0.814531D+01
     39  0.147474D-01  0.836369D-01  0.644226D-02  0.670738D+01
     40  0.591440D-01  0.335423D+00  0.278355D-01  0.405566D+01  0.541359D+01
     41 -0.147474D-01 -0.836369D-01  0.644226D-02  0.103928D+00  0.897563D+00
     42 -0.591440D-01 -0.335423D+00  0.278355D-01  0.897563D+00  0.234661D+01
     43 -0.329090D+00 -0.186636D+01  0.552684D+00  0.390719D-02  0.247619D+00
     44 -0.662472D-01 -0.375707D+00  0.151827D+00  0.247619D+00  0.107106D+01
     45  0.329090D+00  0.186636D+01  0.552684D+00  0.108997D-03  0.592826D-01
     46  0.662472D-01  0.375707D+00  0.151827D+00  0.592826D-01  0.486071D+00
               41            42            43            44            45
     41  0.670738D+01
     42  0.405566D+01  0.541359D+01
     43  0.108997D-03  0.592826D-01  0.670738D+01
     44  0.592826D-01  0.486071D+00  0.405566D+01  0.541359D+01
     45  0.390719D-02  0.247619D+00  0.103928D+00  0.897563D+00  0.670738D+01
     46  0.247619D+00  0.107106D+01  0.897563D+00  0.234661D+01  0.405566D+01
               46
     46  0.541359D+01
 ****** Core Hamiltonian ****** 
                1             2             3             4             5
      1 -0.217682D+02
      2 -0.449791D+01 -0.860884D+01
      3  0.754548D-01  0.547415D+00 -0.812383D+01
      4  0.000000D+00  0.000000D+00  0.000000D+00 -0.768830D+01
      5  0.000000D+00  0.000000D+00  0.000000D+00 -0.269534D-01 -0.783640D+01
      6 -0.386737D+01 -0.691777D+01  0.552654D+00  0.000000D+00  0.000000D+00
      7  0.126759D-01  0.400277D+00 -0.440038D+01  0.000000D+00  0.000000D+00
      8  0.000000D+00  0.000000D+00  0.000000D+00 -0.396770D+01 -0.232451D-01
      9  0.000000D+00  0.000000D+00  0.000000D+00 -0.232451D-01 -0.409543D+01
     10 -0.146643D+01 -0.335510D+01  0.309548D+00  0.000000D+00  0.000000D+00
     11  0.255468D-02  0.119276D+00 -0.127719D+01  0.000000D+00  0.000000D+00
     12  0.000000D+00  0.000000D+00  0.000000D+00 -0.113635D+01 -0.701585D-02
     13  0.000000D+00  0.000000D+00  0.000000D+00 -0.701585D-02 -0.117490D+01
     14 -0.165764D+01 -0.595988D+01  0.898759D+00  0.000000D+00  0.000000D+00
     15 -0.164624D+01 -0.559541D+01  0.223972D+00  0.000000D+00  0.000000D+00
     16 -0.165034D+01 -0.572203D+01  0.168372D+00  0.000000D+00  0.000000D+00
     17  0.000000D+00  0.000000D+00  0.000000D+00  0.387930D+00 -0.175253D-01
     18  0.000000D+00  0.000000D+00  0.000000D+00 -0.175253D-01  0.291630D+00
     19 -0.129200D-02 -0.399098D-01 -0.175253D-01  0.000000D+00  0.000000D+00
     20 -0.187616D-03 -0.417212D+00  0.907603D+00  0.000000D+00  0.000000D+00
     21 -0.417212D+00 -0.199859D+01  0.269926D+01  0.000000D+00  0.000000D+00
     22 -0.907603D+00 -0.269926D+01  0.306283D+01  0.000000D+00  0.000000D+00
     23  0.000000D+00  0.000000D+00  0.000000D+00 -0.976666D+00 -0.146232D-02
     24  0.000000D+00  0.000000D+00  0.000000D+00 -0.146232D-02 -0.984701D+00
     25 -0.135751D+01 -0.324209D+01  0.236849D+01  0.000000D+00  0.000000D+00
     26 -0.272529D+01 -0.487928D+01  0.161843D+01  0.000000D+00  0.000000D+00
     27  0.000000D+00  0.000000D+00  0.000000D+00 -0.177972D+01 -0.624981D-02
     28  0.000000D+00  0.000000D+00  0.000000D+00 -0.624981D-02 -0.181406D+01
     29 -0.110898D+01 -0.263469D+01  0.772828D+00  0.000000D+00  0.000000D+00
     30 -0.116644D+01 -0.248688D+01 -0.265481D+00  0.000000D+00  0.000000D+00
     31  0.000000D+00  0.000000D+00  0.000000D+00 -0.886285D+00 -0.477476D-02
     32  0.000000D+00  0.000000D+00  0.000000D+00 -0.477476D-02 -0.912522D+00
     33 -0.112312D+01 -0.317208D+01  0.373219D+01  0.000000D+00  0.000000D+00
     34 -0.262149D-01 -0.879651D+00  0.130231D+01  0.000000D+00  0.000000D+00
     35 -0.262500D-01 -0.885556D+00  0.131211D+01  0.000000D+00  0.000000D+00
     36  0.000000D+00  0.000000D+00  0.000000D+00 -0.148731D+01 -0.171035D-02
     37  0.000000D+00  0.000000D+00  0.000000D+00 -0.171035D-02 -0.149671D+01
     38 -0.110785D-04 -0.186123D-02  0.308909D-02  0.000000D+00  0.000000D+00
     39 -0.673064D+00 -0.213140D+01 -0.130071D+01 -0.386022D+00 -0.218924D+01
     40 -0.192282D+01 -0.389165D+01 -0.731560D+00 -0.279083D+00 -0.158276D+01
     41 -0.673064D+00 -0.213140D+01 -0.130071D+01  0.386022D+00  0.218924D+01
     42 -0.192282D+01 -0.389165D+01 -0.731560D+00  0.279083D+00  0.158276D+01
     43 -0.100420D-02 -0.867460D-01  0.162290D+00 -0.119409D-01 -0.677204D-01
     44 -0.302195D+00 -0.100482D+01  0.952037D+00 -0.658397D-01 -0.373396D+00
     45 -0.100420D-02 -0.867460D-01  0.162290D+00  0.119409D-01  0.677204D-01
     46 -0.302195D+00 -0.100482D+01  0.952037D+00  0.658397D-01  0.373396D+00
                6             7             8             9            10
      6 -0.732935D+01
      7  0.834042D+00 -0.618283D+01
      8  0.000000D+00  0.000000D+00 -0.519489D+01
      9  0.000000D+00  0.000000D+00 -0.396464D-01 -0.541275D+01
     10 -0.468192D+01  0.752131D+00  0.000000D+00  0.000000D+00 -0.466418D+01
     11  0.383225D+00 -0.319386D+01  0.000000D+00  0.000000D+00  0.585647D+00
     12  0.000000D+00  0.000000D+00 -0.268948D+01 -0.180232D-01  0.000000D+00
     13  0.000000D+00  0.000000D+00 -0.180232D-01 -0.278852D+01  0.000000D+00
     14 -0.520032D+01  0.781272D+00  0.000000D+00  0.000000D+00 -0.266202D+01
     15 -0.478328D+01  0.171675D+00  0.000000D+00  0.000000D+00 -0.242341D+01
     16 -0.491835D+01  0.118479D+00  0.000000D+00  0.000000D+00 -0.249738D+01
     17  0.000000D+00  0.000000D+00  0.297349D+00 -0.167675D-01  0.000000D+00
     18  0.000000D+00  0.000000D+00 -0.167675D-01  0.205212D+00  0.000000D+00
     19 -0.425741D-01 -0.167675D-01  0.000000D+00  0.000000D+00 -0.233159D-01
     20 -0.135751D+01  0.272529D+01  0.000000D+00  0.000000D+00 -0.110898D+01
     21 -0.324209D+01  0.487928D+01  0.000000D+00  0.000000D+00 -0.263469D+01
     22 -0.236849D+01  0.161843D+01  0.000000D+00  0.000000D+00 -0.772828D+00
     23  0.000000D+00  0.000000D+00 -0.177972D+01 -0.624981D-02  0.000000D+00
     24  0.000000D+00  0.000000D+00 -0.624981D-02 -0.181406D+01  0.000000D+00
     25 -0.453322D+01  0.463227D+01  0.000000D+00  0.000000D+00 -0.387856D+01
     26 -0.463227D+01  0.667974D+00  0.000000D+00  0.000000D+00 -0.200935D+01
     27  0.000000D+00  0.000000D+00 -0.321233D+01 -0.169861D-01  0.000000D+00
     28  0.000000D+00  0.000000D+00 -0.169861D-01 -0.330567D+01  0.000000D+00
     29 -0.387856D+01  0.200935D+01  0.000000D+00  0.000000D+00 -0.419262D+01
     30 -0.306100D+01 -0.103234D+01  0.000000D+00  0.000000D+00 -0.221079D+01
     31  0.000000D+00  0.000000D+00 -0.221151D+01 -0.135837D-01  0.000000D+00
     32  0.000000D+00  0.000000D+00 -0.135837D-01 -0.228615D+01  0.000000D+00
     33 -0.326277D+01  0.363763D+01  0.000000D+00  0.000000D+00 -0.219225D+01
     34 -0.204916D+01  0.339740D+01  0.000000D+00  0.000000D+00 -0.187629D+01
     35 -0.208455D+01  0.347343D+01  0.000000D+00  0.000000D+00 -0.192665D+01
     36  0.000000D+00  0.000000D+00 -0.121662D+01  0.660606D-03  0.000000D+00
     37  0.000000D+00  0.000000D+00  0.660606D-03 -0.121299D+01  0.000000D+00
     38 -0.111572D-01  0.239653D-01  0.000000D+00  0.000000D+00 -0.158743D-01
     39 -0.249305D+01 -0.148729D+01 -0.439039D+00 -0.248992D+01 -0.158983D+01
     40 -0.459663D+01 -0.115610D+01 -0.435096D+00 -0.246756D+01 -0.340437D+01
     41 -0.249305D+01 -0.148729D+01  0.439039D+00  0.248992D+01 -0.158983D+01
     42 -0.459663D+01 -0.115610D+01  0.435096D+00  0.246756D+01 -0.340437D+01
     43 -0.561489D+00  0.126770D+01 -0.968519D-01 -0.549275D+00 -0.100307D+01
     44 -0.194306D+01  0.269463D+01 -0.179473D+00 -0.101785D+01 -0.240668D+01
     45 -0.561489D+00  0.126770D+01  0.968519D-01  0.549275D+00 -0.100307D+01
     46 -0.194306D+01  0.269463D+01  0.179473D+00  0.101785D+01 -0.240668D+01
               11            12            13            14            15
     11 -0.363371D+01
     12  0.000000D+00 -0.319353D+01
     13  0.000000D+00 -0.143403D-01 -0.327232D+01
     14  0.236087D+00  0.000000D+00  0.000000D+00 -0.714127D+01
     15  0.497932D-01  0.000000D+00  0.000000D+00 -0.291920D+01 -0.630751D+01
     16  0.341804D-01  0.000000D+00  0.000000D+00 -0.298156D+01 -0.284844D+01
     17  0.000000D+00  0.862443D-01 -0.492123D-02  0.000000D+00  0.000000D+00
     18  0.000000D+00 -0.492123D-02  0.592023D-01  0.000000D+00  0.000000D+00
     19 -0.492123D-02  0.000000D+00  0.000000D+00 -0.196567D-01 -0.313950D-01
     20  0.116644D+01  0.000000D+00  0.000000D+00 -0.112312D+01 -0.262149D-01
     21  0.248688D+01  0.000000D+00  0.000000D+00 -0.317208D+01 -0.879651D+00
     22 -0.265481D+00  0.000000D+00  0.000000D+00 -0.373219D+01 -0.130231D+01
     23  0.000000D+00 -0.886285D+00 -0.477476D-02  0.000000D+00  0.000000D+00
     24  0.000000D+00 -0.477476D-02 -0.912522D+00  0.000000D+00  0.000000D+00
     25  0.306100D+01  0.000000D+00  0.000000D+00 -0.326277D+01 -0.204916D+01
     26 -0.103234D+01  0.000000D+00  0.000000D+00 -0.363763D+01 -0.339740D+01
     27  0.000000D+00 -0.221151D+01 -0.135837D-01  0.000000D+00  0.000000D+00
     28  0.000000D+00 -0.135837D-01 -0.228615D+01  0.000000D+00  0.000000D+00
     29  0.221079D+01  0.000000D+00  0.000000D+00 -0.219225D+01 -0.187629D+01
     30 -0.198307D+01  0.000000D+00  0.000000D+00 -0.179941D+01 -0.184300D+01
     31  0.000000D+00 -0.284057D+01 -0.128030D-01  0.000000D+00  0.000000D+00
     32  0.000000D+00 -0.128030D-01 -0.291093D+01  0.000000D+00  0.000000D+00
     33  0.179941D+01  0.000000D+00  0.000000D+00 -0.415900D+01 -0.147952D+01
     34  0.184300D+01  0.000000D+00  0.000000D+00 -0.147952D+01 -0.632811D+00
     35  0.190510D+01  0.000000D+00  0.000000D+00 -0.148809D+01 -0.265550D+00
     36  0.000000D+00 -0.226553D+00  0.267811D-02  0.000000D+00  0.000000D+00
     37  0.000000D+00  0.267811D-02 -0.211837D+00  0.000000D+00  0.000000D+00
     38  0.195726D-01  0.000000D+00  0.000000D+00 -0.270064D-02 -0.981514D-03
     39 -0.585438D+00 -0.172202D+00 -0.976605D+00 -0.151662D+01 -0.102185D+01
     40 -0.754006D+00 -0.267244D+00 -0.151562D+01 -0.287549D+01 -0.264004D+01
     41 -0.585438D+00  0.172202D+00  0.976605D+00 -0.151662D+01 -0.102185D+01
     42 -0.754006D+00  0.267244D+00  0.151562D+01 -0.287549D+01 -0.264004D+01
     43  0.136708D+01 -0.108015D+00 -0.612586D+00 -0.161300D+00 -0.198402D-01
     44  0.260527D+01 -0.185957D+00 -0.105461D+01 -0.114756D+01 -0.583770D+00
     45  0.136708D+01  0.108015D+00  0.612586D+00 -0.161300D+00 -0.198402D-01
     46  0.260527D+01  0.185957D+00  0.105461D+01 -0.114756D+01 -0.583770D+00
               16            17            18            19            20
     16 -0.658026D+01
     17  0.000000D+00 -0.555760D+01
     18  0.000000D+00 -0.340464D-01 -0.574469D+01
     19 -0.545796D-01  0.000000D+00  0.000000D+00 -0.534531D+01
     20 -0.262500D-01  0.000000D+00  0.000000D+00 -0.110785D-04 -0.217682D+02
     21 -0.885556D+00  0.000000D+00  0.000000D+00 -0.186123D-02 -0.449791D+01
     22 -0.131211D+01  0.000000D+00  0.000000D+00 -0.308909D-02 -0.754548D-01
     23  0.000000D+00  0.148731D+01  0.171035D-02  0.000000D+00  0.000000D+00
     24  0.000000D+00  0.171035D-02  0.149671D+01  0.000000D+00  0.000000D+00
     25 -0.208455D+01  0.000000D+00  0.000000D+00 -0.111572D-01 -0.386737D+01
     26 -0.347343D+01  0.000000D+00  0.000000D+00 -0.239653D-01 -0.126759D-01
     27  0.000000D+00  0.121662D+01 -0.660606D-03  0.000000D+00  0.000000D+00
     28  0.000000D+00 -0.660606D-03  0.121299D+01  0.000000D+00  0.000000D+00
     29 -0.192665D+01  0.000000D+00  0.000000D+00 -0.158743D-01 -0.146643D+01
     30 -0.190510D+01  0.000000D+00  0.000000D+00 -0.195726D-01 -0.255468D-02
     31  0.000000D+00  0.226553D+00 -0.267811D-02  0.000000D+00  0.000000D+00
     32  0.000000D+00 -0.267811D-02  0.211837D+00  0.000000D+00  0.000000D+00
     33 -0.148809D+01  0.000000D+00  0.000000D+00 -0.270064D-02 -0.165764D+01
     34 -0.265550D+00  0.000000D+00  0.000000D+00 -0.981514D-03 -0.164624D+01
     35 -0.639580D+00  0.000000D+00  0.000000D+00 -0.115220D-02 -0.165034D+01
     36  0.000000D+00  0.224671D+01  0.243877D-02  0.000000D+00  0.000000D+00
     37  0.000000D+00  0.243877D-02  0.226011D+01  0.000000D+00  0.000000D+00
     38 -0.115220D-02  0.000000D+00  0.000000D+00 -0.555616D+00 -0.129200D-02
     39 -0.246784D+01 -0.269108D+00 -0.152619D+01 -0.455786D+00 -0.100420D-02
     40 -0.307815D+01 -0.577479D-01 -0.327506D+00 -0.138097D+00 -0.302195D+00
     41 -0.246784D+01  0.269108D+00  0.152619D+01 -0.455786D+00 -0.100420D-02
     42 -0.307815D+01  0.577479D-01  0.327506D+00 -0.138097D+00 -0.302195D+00
     43 -0.448261D-01  0.177299D-01  0.100551D+00 -0.787574D-02 -0.673064D+00
     44 -0.668114D+00  0.565434D-01  0.320674D+00 -0.265856D-01 -0.192282D+01
     45 -0.448261D-01 -0.177299D-01 -0.100551D+00 -0.787574D-02 -0.673064D+00
     46 -0.668114D+00 -0.565434D-01 -0.320674D+00 -0.265856D-01 -0.192282D+01
               21            22            23            24            25
     21 -0.860884D+01
     22 -0.547415D+00 -0.812383D+01
     23  0.000000D+00  0.000000D+00 -0.768830D+01
     24  0.000000D+00  0.000000D+00 -0.269534D-01 -0.783640D+01
     25 -0.691777D+01 -0.552654D+00  0.000000D+00  0.000000D+00 -0.732935D+01
     26 -0.400277D+00 -0.440038D+01  0.000000D+00  0.000000D+00 -0.834042D+00
     27  0.000000D+00  0.000000D+00 -0.396770D+01 -0.232451D-01  0.000000D+00
     28  0.000000D+00  0.000000D+00 -0.232451D-01 -0.409543D+01  0.000000D+00
     29 -0.335510D+01 -0.309548D+00  0.000000D+00  0.000000D+00 -0.468192D+01
     30 -0.119276D+00 -0.127719D+01  0.000000D+00  0.000000D+00 -0.383225D+00
     31  0.000000D+00  0.000000D+00 -0.113635D+01 -0.701585D-02  0.000000D+00
     32  0.000000D+00  0.000000D+00 -0.701585D-02 -0.117490D+01  0.000000D+00
     33 -0.595988D+01 -0.898759D+00  0.000000D+00  0.000000D+00 -0.520032D+01
     34 -0.559541D+01 -0.223972D+00  0.000000D+00  0.000000D+00 -0.478328D+01
     35 -0.572203D+01 -0.168372D+00  0.000000D+00  0.000000D+00 -0.491835D+01
     36  0.000000D+00  0.000000D+00 -0.387930D+00  0.175253D-01  0.000000D+00
     37  0.000000D+00  0.000000D+00  0.175253D-01 -0.291630D+00  0.000000D+00
     38 -0.399098D-01  0.175253D-01  0.000000D+00  0.000000D+00 -0.425741D-01
     39 -0.867460D-01 -0.162290D+00 -0.119409D-01 -0.677204D-01 -0.561489D+00
     40 -0.100482D+01 -0.952037D+00 -0.658397D-01 -0.373396D+00 -0.194306D+01
     41 -0.867460D-01 -0.162290D+00  0.119409D-01  0.677204D-01 -0.561489D+00
     42 -0.100482D+01 -0.952037D+00  0.658397D-01  0.373396D+00 -0.194306D+01
     43 -0.213140D+01  0.130071D+01 -0.386022D+00 -0.218924D+01 -0.249305D+01
     44 -0.389165D+01  0.731560D+00 -0.279083D+00 -0.158276D+01 -0.459663D+01
     45 -0.213140D+01  0.130071D+01  0.386022D+00  0.218924D+01 -0.249305D+01
     46 -0.389165D+01  0.731560D+00  0.279083D+00  0.158276D+01 -0.459663D+01
               26            27            28            29            30
     26 -0.618283D+01
     27  0.000000D+00 -0.519489D+01
     28  0.000000D+00 -0.396464D-01 -0.541275D+01
     29 -0.752131D+00  0.000000D+00  0.000000D+00 -0.466418D+01
     30 -0.319386D+01  0.000000D+00  0.000000D+00 -0.585647D+00 -0.363371D+01
     31  0.000000D+00 -0.268948D+01 -0.180232D-01  0.000000D+00  0.000000D+00
     32  0.000000D+00 -0.180232D-01 -0.278852D+01  0.000000D+00  0.000000D+00
     33 -0.781272D+00  0.000000D+00  0.000000D+00 -0.266202D+01 -0.236087D+00
     34 -0.171675D+00  0.000000D+00  0.000000D+00 -0.242341D+01 -0.497932D-01
     35 -0.118479D+00  0.000000D+00  0.000000D+00 -0.249738D+01 -0.341804D-01
     36  0.000000D+00 -0.297349D+00  0.167675D-01  0.000000D+00  0.000000D+00
     37  0.000000D+00  0.167675D-01 -0.205212D+00  0.000000D+00  0.000000D+00
     38  0.167675D-01  0.000000D+00  0.000000D+00 -0.233159D-01  0.492123D-02
     39 -0.126770D+01 -0.968519D-01 -0.549275D+00 -0.100307D+01 -0.136708D+01
     40 -0.269463D+01 -0.179473D+00 -0.101785D+01 -0.240668D+01 -0.260527D+01
     41 -0.126770D+01  0.968519D-01  0.549275D+00 -0.100307D+01 -0.136708D+01
     42 -0.269463D+01  0.179473D+00  0.101785D+01 -0.240668D+01 -0.260527D+01
     43  0.148729D+01 -0.439039D+00 -0.248992D+01 -0.158983D+01  0.585438D+00
     44  0.115610D+01 -0.435096D+00 -0.246756D+01 -0.340437D+01  0.754006D+00
     45  0.148729D+01  0.439039D+00  0.248992D+01 -0.158983D+01  0.585438D+00
     46  0.115610D+01  0.435096D+00  0.246756D+01 -0.340437D+01  0.754006D+00
               31            32            33            34            35
     31 -0.319353D+01
     32 -0.143403D-01 -0.327232D+01
     33  0.000000D+00  0.000000D+00 -0.714127D+01
     34  0.000000D+00  0.000000D+00 -0.291920D+01 -0.630751D+01
     35  0.000000D+00  0.000000D+00 -0.298156D+01 -0.284844D+01 -0.658026D+01
     36 -0.862443D-01  0.492123D-02  0.000000D+00  0.000000D+00  0.000000D+00
     37  0.492123D-02 -0.592023D-01  0.000000D+00  0.000000D+00  0.000000D+00
     38  0.000000D+00  0.000000D+00 -0.196567D-01 -0.313950D-01 -0.545796D-01
     39 -0.108015D+00 -0.612586D+00 -0.161300D+00 -0.198402D-01 -0.448261D-01
     40 -0.185957D+00 -0.105461D+01 -0.114756D+01 -0.583770D+00 -0.668114D+00
     41  0.108015D+00  0.612586D+00 -0.161300D+00 -0.198402D-01 -0.448261D-01
     42  0.185957D+00  0.105461D+01 -0.114756D+01 -0.583770D+00 -0.668114D+00
     43 -0.172202D+00 -0.976605D+00 -0.151662D+01 -0.102185D+01 -0.246784D+01
     44 -0.267244D+00 -0.151562D+01 -0.287549D+01 -0.264004D+01 -0.307815D+01
     45  0.172202D+00  0.976605D+00 -0.151662D+01 -0.102185D+01 -0.246784D+01
     46  0.267244D+00  0.151562D+01 -0.287549D+01 -0.264004D+01 -0.307815D+01
               36            37            38            39            40
     36 -0.555760D+01
     37 -0.340464D-01 -0.574469D+01
     38  0.000000D+00  0.000000D+00 -0.534531D+01
     39 -0.177299D-01 -0.100551D+00 -0.787574D-02 -0.531170D+01
     40 -0.565434D-01 -0.320674D+00 -0.265856D-01 -0.379592D+01 -0.517168D+01
     41  0.177299D-01  0.100551D+00 -0.787574D-02 -0.125459D+00 -0.902187D+00
     42  0.565434D-01  0.320674D+00 -0.265856D-01 -0.902187D+00 -0.231753D+01
     43  0.269108D+00  0.152619D+01 -0.455786D+00 -0.595970D-02 -0.260855D+00
     44  0.577479D-01  0.327506D+00 -0.138097D+00 -0.260855D+00 -0.107865D+01
     45 -0.269108D+00 -0.152619D+01 -0.455786D+00 -0.173115D-03 -0.649071D-01
     46 -0.577479D-01 -0.327506D+00 -0.138097D+00 -0.649071D-01 -0.498864D+00
               41            42            43            44            45
     41 -0.531170D+01
     42 -0.379592D+01 -0.517168D+01
     43 -0.173115D-03 -0.649071D-01 -0.531170D+01
     44 -0.649071D-01 -0.498864D+00 -0.379592D+01 -0.517168D+01
     45 -0.595970D-02 -0.260855D+00 -0.125459D+00 -0.902187D+00 -0.531170D+01
     46 -0.260855D+00 -0.107865D+01 -0.902187D+00 -0.231753D+01 -0.379592D+01
               46
     46 -0.517168D+01
 SVDSVc IR=1
 SVDSVc V= 7.30D+00 5.12D+00 4.09D+00 3.11D+00 2.40D+00 2.15D+00 1.51D+00 1.45D+00 1.39D+00 1.23D+00
 SVDSVc V= 1.18D+00 1.16D+00 1.09D+00 1.04D+00 1.00D+00 9.79D-01 9.48D-01 8.63D-01 8.38D-01 8.29D-01
 SVDSVc V= 7.64D-01 6.05D-01 5.78D-01 5.58D-01 4.52D-01 4.48D-01 4.27D-01 3.34D-01 3.29D-01 2.88D-01
[...]
     14  0.000000D+00  0.000000D+00  0.802465D-01  0.944863D+01
     15  0.000000D+00  0.000000D+00  0.802465D-01  0.314954D+01  0.944863D+01
     16  0.000000D+00  0.000000D+00  0.240740D+00  0.314954D+01  0.314954D+01
     17  0.000000D+00  0.000000D+00  0.000000D+00  0.000000D+00  0.000000D+00
     18  0.138991D+00  0.000000D+00  0.000000D+00  0.000000D+00  0.000000D+00
     19  0.000000D+00  0.138991D+00  0.000000D+00  0.000000D+00  0.000000D+00
     20 -0.524929D+00  0.000000D+00  0.242721D-02  0.497722D+00  0.107034D-01
     21 -0.286922D+01  0.000000D+00  0.116857D+00  0.315964D+01  0.877074D+00
     22  0.565521D+00  0.000000D+00  0.223529D-01  0.391056D+01  0.134322D+01
     23  0.000000D+00  0.119555D+01  0.000000D+00  0.000000D+00  0.000000D+00
     24 -0.299370D+00  0.000000D+00  0.119555D+01  0.153788D+00  0.349443D-01
     25 -0.463963D+01  0.000000D+00  0.572335D+00  0.333677D+01  0.241807D+01
     26  0.244511D+01  0.000000D+00  0.246390D+00  0.399652D+01  0.417111D+01
     27  0.000000D+00  0.444248D+01  0.000000D+00  0.000000D+00  0.000000D+00
     28 -0.949078D+00  0.000000D+00  0.444248D+01  0.149740D+00  0.108513D+00
     29 -0.436415D+01  0.000000D+00  0.207369D+01  0.240595D+01  0.233725D+01
     30  0.587896D+01  0.000000D+00  0.110348D+01  0.216942D+01  0.235833D+01
     31  0.000000D+00  0.820126D+01  0.000000D+00  0.000000D+00  0.000000D+00
     32 -0.110348D+01  0.000000D+00  0.820126D+01  0.631562D-01  0.613526D-01
     33 -0.216942D+01  0.000000D+00  0.631562D-01  0.460352D+01  0.146419D+01
     34 -0.235833D+01  0.000000D+00  0.613526D-01  0.146419D+01  0.711697D+00
     35 -0.235833D+01  0.000000D+00  0.184058D+00  0.146419D+01  0.237232D+00
     36  0.000000D+00  0.223640D+00  0.000000D+00  0.000000D+00  0.000000D+00
     37  0.492084D-01  0.000000D+00  0.223640D+00  0.230652D+00  0.552863D-01
     38  0.000000D+00  0.106266D+00  0.000000D+00  0.000000D+00  0.000000D+00
     39  0.121491D+01  0.346064D+00  0.203596D+01  0.212897D+01  0.126416D+01
     40  0.245539D+01  0.699410D+00  0.462005D+01  0.361820D+01  0.342187D+01
     41  0.856143D+00 -0.243870D+00 -0.130973D+01  0.178521D+01  0.106802D+01
     42  0.183426D+01 -0.522484D+00 -0.230967D+01  0.340136D+01  0.321680D+01
     43 -0.249639D+01  0.211568D+00  0.124478D+01  0.140849D+00  0.174327D-01
     44 -0.546966D+01  0.463551D+00  0.306205D+01  0.117146D+01  0.688966D+00
     45 -0.175927D+01 -0.149097D+00 -0.800658D+00  0.119422D+00  0.147924D-01
     46 -0.408603D+01 -0.346289D+00 -0.153079D+01  0.110126D+01  0.647676D+00
               16            17            18            19            20
     16  0.944863D+01
     17  0.000000D+00  0.944863D+01
     18  0.000000D+00  0.000000D+00  0.944863D+01
     19  0.000000D+00  0.000000D+00  0.000000D+00  0.944863D+01
     20  0.107034D-01  0.000000D+00 -0.406730D-02  0.000000D+00  0.944863D+01
     21  0.877074D+00  0.000000D+00 -0.163715D+00  0.000000D+00  0.206981D+01
     22  0.134322D+01  0.000000D+00 -0.199928D+00  0.000000D+00  0.000000D+00
     23  0.000000D+00 -0.173280D+01  0.000000D+00  0.605253D-01  0.000000D+00
     24  0.104833D+00  0.000000D+00 -0.173280D+01  0.000000D+00  0.948317D-01
     25  0.241807D+01  0.000000D+00 -0.196291D+00  0.000000D+00  0.174102D+01
     26  0.417111D+01  0.000000D+00 -0.150646D+00  0.000000D+00  0.000000D+00
     27  0.000000D+00 -0.152361D+01  0.000000D+00  0.187950D+00  0.000000D+00
     28  0.325538D+00  0.000000D+00 -0.152361D+01  0.000000D+00  0.159312D-01
     29  0.233725D+01  0.000000D+00 -0.565474D-01  0.000000D+00  0.659248D+00
     30  0.235833D+01  0.000000D+00  0.492084D-01  0.000000D+00  0.000000D+00
     31  0.000000D+00 -0.223640D+00  0.000000D+00  0.106266D+00  0.000000D+00
     32  0.184058D+00  0.000000D+00 -0.223640D+00  0.000000D+00  0.321073D-02
     33  0.146419D+01  0.000000D+00 -0.230652D+00  0.000000D+00  0.747412D+00
     34  0.237232D+00  0.000000D+00 -0.552863D-01  0.000000D+00  0.747412D+00
     35  0.711697D+00  0.000000D+00 -0.165859D+00  0.000000D+00  0.747412D+00
     36  0.000000D+00 -0.296916D+01  0.000000D+00  0.957588D-01  0.000000D+00
     37  0.165859D+00  0.000000D+00 -0.296916D+01  0.000000D+00  0.000000D+00
     38  0.000000D+00 -0.957588D-01  0.000000D+00  0.711697D+00  0.000000D+00
     39  0.382707D+01  0.464346D+00  0.273161D+01  0.778090D+00  0.417643D-03
     40  0.416618D+01  0.105418D+00  0.707238D+00  0.201455D+00  0.135773D+00
     41  0.285850D+01 -0.385087D+00 -0.208578D+01  0.594127D+00  0.395947D-03
     42  0.352066D+01 -0.991004D-01 -0.452647D+00  0.128935D+00  0.134045D+00
     43  0.477616D-01 -0.182475D-01 -0.107999D+00  0.915290D-02  0.309904D+00
     44  0.838827D+00 -0.713386D-01 -0.478602D+00  0.405613D-01  0.871562D+00
     45  0.358769D-01  0.154698D-01  0.832213D-01  0.705297D-02  0.295801D+00
     46  0.708856D+00  0.670632D-01  0.306315D+00  0.259601D-01  0.860644D+00
               21            22            23            24            25
     21  0.944863D+01
     22  0.000000D+00  0.944863D+01
     23  0.000000D+00  0.000000D+00  0.944863D+01
     24  0.685407D+00  0.000000D+00  0.000000D+00  0.944863D+01
     25  0.767487D+01  0.000000D+00  0.000000D+00  0.693556D+00  0.944863D+01
     26  0.000000D+00  0.538340D+01  0.000000D+00  0.000000D+00  0.000000D+00
     27  0.000000D+00  0.000000D+00  0.538340D+01  0.000000D+00  0.000000D+00
     28  0.502210D+00  0.000000D+00  0.000000D+00  0.538340D+01  0.121729D+01
     29  0.379921D+01  0.000000D+00  0.000000D+00  0.393432D+00  0.687545D+01
     30  0.000000D+00  0.155599D+01  0.000000D+00  0.000000D+00  0.000000D+00
     31  0.000000D+00  0.000000D+00  0.155599D+01  0.000000D+00  0.000000D+00
     32  0.151825D+00  0.000000D+00  0.000000D+00  0.155599D+01  0.716606D+00
     33  0.671075D+01  0.000000D+00  0.000000D+00  0.322914D+00  0.595204D+01
     34  0.671075D+01  0.000000D+00  0.000000D+00  0.322914D+00  0.595204D+01
     35  0.671075D+01  0.000000D+00  0.000000D+00  0.968741D+00  0.595204D+01
     36  0.000000D+00  0.000000D+00  0.000000D+00  0.000000D+00  0.000000D+00
     37  0.000000D+00  0.559303D+00  0.000000D+00  0.000000D+00  0.000000D+00
     38  0.000000D+00  0.000000D+00  0.559303D+00  0.000000D+00  0.000000D+00
     39  0.821067D-01  0.158626D+00  0.134435D-01  0.794848D-01  0.803415D+00
     40  0.108384D+01  0.100286D+01  0.849919D-01  0.569463D+00  0.270224D+01
     41  0.670998D-01  0.129832D+00 -0.110032D-01 -0.591596D-01  0.596375D+00
     42  0.992475D+00  0.926486D+00 -0.785193D-01 -0.357857D+00  0.225607D+01
     43  0.283415D+01 -0.198154D+01  0.564436D+00  0.332657D+01  0.407111D+01
     44  0.467883D+01 -0.135728D+01  0.386618D+00  0.259071D+01  0.723343D+01
     45  0.228066D+01 -0.162152D+01 -0.461885D+00 -0.249400D+01  0.301756D+01
     46  0.427776D+01 -0.125582D+01 -0.357717D+00 -0.163063D+01  0.603909D+01
               26            27            28            29            30
     26  0.944863D+01
     27  0.000000D+00  0.944863D+01
     28  0.000000D+00  0.000000D+00  0.944863D+01
     29  0.000000D+00  0.000000D+00  0.140644D+01  0.944863D+01
     30  0.556232D+01  0.000000D+00  0.000000D+00  0.000000D+00  0.944863D+01
     31  0.000000D+00  0.556232D+01  0.000000D+00  0.000000D+00  0.000000D+00
     32  0.000000D+00  0.000000D+00  0.556232D+01  0.238909D+01  0.000000D+00
     33  0.000000D+00  0.000000D+00  0.267102D+00  0.305701D+01  0.000000D+00
     34  0.000000D+00  0.000000D+00  0.267102D+00  0.305701D+01  0.000000D+00
     35  0.000000D+00  0.000000D+00  0.801306D+00  0.305701D+01  0.000000D+00
     36  0.000000D+00  0.000000D+00  0.000000D+00  0.000000D+00  0.000000D+00
     37  0.462634D+00  0.000000D+00  0.000000D+00  0.000000D+00  0.138991D+00
     38  0.000000D+00  0.462634D+00  0.000000D+00  0.000000D+00  0.000000D+00
     39  0.191970D+01  0.162694D+00  0.958152D+00  0.175190D+01  0.249639D+01
     40  0.392693D+01  0.332806D+00  0.221403D+01  0.459077D+01  0.546966D+01
     41  0.142386D+01 -0.120672D+00 -0.648895D+00  0.123471D+01  0.175927D+01
     42  0.327854D+01 -0.277855D+00 -0.124920D+01  0.342946D+01  0.408603D+01
     43 -0.290854D+01  0.828489D+00  0.487466D+01  0.286528D+01 -0.121491D+01
     44 -0.312751D+01  0.890862D+00  0.592657D+01  0.692659D+01 -0.245539D+01
     45 -0.215364D+01 -0.613459D+00 -0.330305D+01  0.201932D+01 -0.856143D+00
     46 -0.261112D+01 -0.743769D+00 -0.334390D+01  0.517441D+01 -0.183426D+01
               31            32            33            34            35
     31  0.944863D+01
     32  0.000000D+00  0.944863D+01
     33  0.000000D+00  0.802465D-01  0.944863D+01
     34  0.000000D+00  0.802465D-01  0.314954D+01  0.944863D+01
     35  0.000000D+00  0.240740D+00  0.314954D+01  0.314954D+01  0.944863D+01
     36  0.000000D+00  0.000000D+00  0.000000D+00  0.000000D+00  0.000000D+00
     37  0.000000D+00  0.000000D+00  0.000000D+00  0.000000D+00  0.000000D+00
     38  0.138991D+00  0.000000D+00  0.000000D+00  0.000000D+00  0.000000D+00
     39  0.211568D+00  0.124478D+01  0.140849D+00  0.174327D-01  0.477616D-01
     40  0.463551D+00  0.306205D+01  0.117146D+01  0.688966D+00  0.838827D+00
     41 -0.149097D+00 -0.800658D+00  0.119422D+00  0.147924D-01  0.358769D-01
     42 -0.346289D+00 -0.153079D+01  0.110126D+01  0.647676D+00  0.708856D+00
     43  0.346064D+00  0.203596D+01  0.212897D+01  0.126416D+01  0.382707D+01
     44  0.699410D+00  0.462005D+01  0.361820D+01  0.342187D+01  0.416618D+01
     45 -0.243870D+00 -0.130973D+01  0.178521D+01  0.106802D+01  0.285850D+01
     46 -0.522484D+00 -0.230967D+01  0.340136D+01  0.321680D+01  0.352066D+01
               36            37            38            39            40
     36  0.944863D+01
     37  0.000000D+00  0.944863D+01
     38  0.000000D+00  0.000000D+00  0.944863D+01
     39  0.182475D-01  0.107999D+00  0.915290D-02  0.111883D+02
     40  0.713386D-01  0.478602D+00  0.405613D-01  0.736518D+01  0.111883D+02
     41 -0.154698D-01 -0.832213D-01  0.705297D-02  0.118862D+00  0.107078D+01
     42 -0.670632D-01 -0.306315D+00  0.259601D-01  0.134828D+01  0.345319D+01
     43 -0.464346D+00 -0.273161D+01  0.778090D+00  0.639574D-02  0.409892D+00
     44 -0.105418D+00 -0.707238D+00  0.201455D+00  0.409892D+00  0.188940D+01
     45  0.385087D+00  0.208578D+01  0.594127D+00  0.989877D-04  0.604008D-01
     46  0.991004D-01  0.452647D+00  0.128935D+00  0.757720D-01  0.583148D+00
               41            42            43            44            45
     41  0.770894D+01
     42  0.507473D+01  0.770894D+01
     43  0.989877D-04  0.757720D-01  0.111883D+02
     44  0.604008D-01  0.583148D+00  0.736518D+01  0.111883D+02
     45  0.440677D-02  0.282422D+00  0.118862D+00  0.107078D+01  0.770894D+01
     46  0.282422D+00  0.130183D+01  0.134828D+01  0.345319D+01  0.507473D+01
               46
     46  0.770894D+01
 Fermi contact integrals: 
               1            2            3            4            5
      1 0.758902D+01 0.000000D+00 0.000000D+00 0.000000D+00 0.000000D+00
      2-0.673212D-01 0.153063D-01 0.502054D-01 0.502054D-01 0.756428D-04
      3 0.000000D+00-0.373935D-01 0.523279D-01 0.523279D-01-0.262955D-03
      4 0.000000D+00 0.000000D+00 0.149055D-01-0.149055D-01 0.222853D-04
      5 0.000000D+00 0.000000D+00 0.845332D-01-0.845332D-01 0.126387D-03
      6 0.187618D+00 0.630344D-01 0.911268D-01 0.911268D-01 0.121531D-01
      7 0.000000D+00-0.131664D+00 0.806176D-01 0.806176D-01-0.361366D-01
      8 0.000000D+00 0.000000D+00 0.229637D-01-0.229637D-01 0.306256D-02
      9 0.000000D+00 0.000000D+00 0.130234D+00-0.130234D+00 0.173687D-01
     10 0.682363D-01 0.514090D-01 0.565711D-01 0.565711D-01 0.335310D-01
     11 0.000000D+00-0.547127D-01 0.255000D-01 0.255000D-01-0.508002D-01
     12 0.000000D+00 0.000000D+00 0.726359D-02-0.726359D-02 0.430530D-02
     13 0.000000D+00 0.000000D+00 0.411939D-01-0.411939D-01 0.244166D-01
     14 0.000000D+00 0.408539D-01 0.420755D-01 0.420755D-01 0.337410D-04
     15 0.000000D+00 0.000000D+00 0.341391D-02 0.341391D-02 0.000000D+00
     16 0.000000D+00 0.000000D+00 0.109804D+00 0.109804D+00 0.779467D-05
     17 0.000000D+00 0.000000D+00 0.207588D-01-0.207588D-01-0.495287D-05
     18 0.000000D+00 0.000000D+00 0.117729D+00-0.117729D+00-0.280892D-04
     19 0.000000D+00 0.000000D+00 0.335348D-01 0.335348D-01 0.238055D-05
     20 0.000000D+00 0.758902D+01 0.000000D+00 0.000000D+00 0.000000D+00
     21 0.153063D-01-0.673212D-01 0.756428D-04 0.756428D-04 0.502054D-01
     22 0.373935D-01 0.000000D+00 0.262955D-03 0.262955D-03-0.523279D-01
     23 0.000000D+00 0.000000D+00 0.222853D-04-0.222853D-04 0.149055D-01
     24 0.000000D+00 0.000000D+00 0.126387D-03-0.126387D-03 0.845332D-01
     25 0.630344D-01 0.187618D+00 0.121531D-01 0.121531D-01 0.911268D-01
     26 0.131664D+00 0.000000D+00 0.361366D-01 0.361366D-01-0.806176D-01
     27 0.000000D+00 0.000000D+00 0.306256D-02-0.306256D-02 0.229637D-01
     28 0.000000D+00 0.000000D+00 0.173687D-01-0.173687D-01 0.130234D+00
     29 0.514090D-01 0.682363D-01 0.335310D-01 0.335310D-01 0.565711D-01
     30 0.547127D-01 0.000000D+00 0.508002D-01 0.508002D-01-0.255000D-01
     31 0.000000D+00 0.000000D+00 0.430530D-02-0.430530D-02 0.726359D-02
     32 0.000000D+00 0.000000D+00 0.244166D-01-0.244166D-01 0.411939D-01
     33 0.408539D-01 0.000000D+00 0.337410D-04 0.337410D-04 0.420755D-01
     34 0.000000D+00 0.000000D+00 0.000000D+00 0.000000D+00 0.341391D-02
     35 0.000000D+00 0.000000D+00 0.779467D-05 0.779467D-05 0.109804D+00
     36 0.000000D+00 0.000000D+00 0.495287D-05-0.495287D-05-0.207588D-01
     37 0.000000D+00 0.000000D+00 0.280892D-04-0.280892D-04-0.117729D+00
     38 0.000000D+00 0.000000D+00 0.238055D-05 0.238055D-05 0.335348D-01
     39 0.268036D-01 0.128373D-04 0.994558D+00 0.140592D-03 0.000000D+00
     40 0.909467D-01 0.132555D-01 0.181381D+00 0.242267D-01 0.517260D-02
     41 0.268036D-01 0.128373D-04 0.140592D-03 0.994558D+00 0.000000D+00
     42 0.909467D-01 0.132555D-01 0.242267D-01 0.181381D+00 0.690894D-03
     43 0.128373D-04 0.268036D-01 0.000000D+00 0.000000D+00 0.994558D+00
     44 0.132555D-01 0.909467D-01 0.517260D-02 0.690894D-03 0.181381D+00
     45 0.128373D-04 0.268036D-01 0.000000D+00 0.000000D+00 0.140592D-03
     46 0.132555D-01 0.909467D-01 0.690894D-03 0.517260D-02 0.242267D-01
               6
      1 0.000000D+00
      2 0.756428D-04
      3-0.262955D-03
      4-0.222853D-04
      5-0.126387D-03
      6 0.121531D-01
      7-0.361366D-01
      8-0.306256D-02
      9-0.173687D-01
     10 0.335310D-01
     11-0.508002D-01
     12-0.430530D-02
     13-0.244166D-01
     14 0.337410D-04
     15 0.000000D+00
     16 0.779467D-05
     17 0.495287D-05
     18 0.280892D-04
     19 0.238055D-05
     20 0.000000D+00
     21 0.502054D-01
     22-0.523279D-01
     23-0.149055D-01
     24-0.845332D-01
     25 0.911268D-01
     26-0.806176D-01
     27-0.229637D-01
     28-0.130234D+00
     29 0.565711D-01
     30-0.255000D-01
     31-0.726359D-02
     32-0.411939D-01
     33 0.420755D-01
     34 0.341391D-02
     35 0.109804D+00
     36 0.207588D-01
     37 0.117729D+00
     38 0.335348D-01
     39 0.000000D+00
     40 0.690894D-03
     41 0.000000D+00
     42 0.517260D-02
     43 0.140592D-03
     44 0.242267D-01
     45 0.994558D+00
     46 0.181381D+00
 Harris functional with IExCor=  402 diagonalized for initial guess.
 ExpMin= 4.38D-02 ExpMax= 3.05D+03 ExpMxC= 4.57D+02 IAcc=2 IRadAn=         4 AccDes= 0.00D+00
 HarFok:  IExCor= 402 AccDes= 0.00D+00 IRadAn=         4 IDoV=1
 ScaDFX=  1.000000  1.000000  1.000000  1.000000
 Requested convergence on RMS density matrix=1.00D-08 within 128 cycles.
 Requested convergence on MAX density matrix=1.00D-06.
 Requested convergence on             energy=1.00D-06.
 No special actions if energy rises.
 Keep R1 integrals in memory in canonical form, NReq=     1532902.
 SCF Done:  E(RB+HF-LYP) =  -78.5929907894     A.U. after    8 cycles
             Convg  =    0.1491D-08             -V/T =  2.0119
             S**2   =   0.0000

 **********************************************************************

            Population analysis using the SCF density.

 **********************************************************************

 Alpha  occ. eigenvalues --  -10.19871 -10.19791  -0.76206  -0.58448  -0.47269
 Alpha  occ. eigenvalues --   -0.42268  -0.36322  -0.27597
 Alpha virt. eigenvalues --   -0.00988   0.02500   0.03257   0.04671   0.06946
 Alpha virt. eigenvalues --    0.08668   0.08746   0.12753   0.15670   0.17639
 Alpha virt. eigenvalues --    0.19039   0.24303   0.34233   0.34754   0.57993
 Alpha virt. eigenvalues --    0.65785   0.67467   0.71916   0.75676   0.81960
 Alpha virt. eigenvalues --    0.89952   0.93643   0.96323   1.00218   1.16203
 Alpha virt. eigenvalues --    1.21969   1.44779   1.53897   1.81651   1.88523
 Alpha virt. eigenvalues --    1.99937   2.10768   2.29199   2.37010   2.66501
 Alpha virt. eigenvalues --    2.70045   4.11589   4.25146
          Condensed to atoms (all electrons):
              1          2          3          4          5          6
     1  C    5.006793   0.666603   0.382556   0.382556  -0.036201  -0.036201
     2  C    0.666603   5.006793  -0.036201  -0.036201   0.382556   0.382556
     3  H    0.382556  -0.036201   0.506599  -0.033238  -0.006694   0.003928
     4  H    0.382556  -0.036201  -0.033238   0.506599   0.003928  -0.006694
     5  H   -0.036201   0.382556  -0.006694   0.003928   0.506599  -0.033238
     6  H   -0.036201   0.382556   0.003928  -0.006694  -0.033238   0.506599
 Mulliken atomic charges:
              1
     1  C   -0.366103
     2  C   -0.366103
     3  H    0.183052
     4  H    0.183052
     5  H    0.183052
     6  H    0.183052
 Sum of Mulliken charges=   0.00000
 Atomic charges with hydrogens summed into heavy atoms:
              1
     1  C    0.000000
     2  C    0.000000
     3  H    0.000000
     4  H    0.000000
     5  H    0.000000
     6  H    0.000000
 Sum of Mulliken charges=   0.00000
 Electronic spatial extent (au):  <R**2>=  1512.8238
 Charge=     0.0000 electrons
 Dipole moment (field-independent basis, Debye):
    X=     0.0000    Y=     0.0000    Z=     0.0000  Tot=     0.0000
 Quadrupole moment (field-independent basis, Debye-Ang):
   XX=   -12.4311   YY=   -16.0247   ZZ=   -12.5194
   XY=     0.0000   XZ=     0.0000   YZ=     0.6379
 Traceless Quadrupole moment (field-independent basis, Debye-Ang):
   XX=     1.2273   YY=    -2.3663   ZZ=     1.1390
   XY=     0.0000   XZ=     0.0000   YZ=     0.6379
 Octapole moment (field-independent basis, Debye-Ang**2):
  XXX=     0.0000  YYY=     0.0000  ZZZ=  -187.7915  XYY=     0.0000
  XXY=     0.0000  XXZ=   -62.1555  XZZ=     0.0000  YZZ=     6.3788
  YYZ=   -80.1234  XYZ=     0.0000
 Hexadecapole moment (field-independent basis, Debye-Ang**3):
 XXXX=   -71.8908 YYYY=   -22.9137 ZZZZ= -1906.5443 XXXY=     0.0000
 XXXZ=     0.0000 YYYX=     0.0000 YYYZ=    -0.8297 ZZZX=     0.0000
 ZZZY=    47.6303 XXYY=   -16.7485 XXZZ=  -325.1023 YYZZ=  -409.6994
 XXYZ=     0.4410 YYXZ=     0.0000 ZZXY=     0.0000
 N-N= 3.305010536931D+01 E-N=-2.472639566391D+02  KE= 7.767044395221D+01

 Test job not archived.
 1\1\GINC-RHUBARB\SP\RB3LYP\6-31+G(d)\C2H4\JK905\09-Nov-2007\0\\#B3LYP/
 6-31+G* SCF=TIGHT NOSYMM PUNCH=MO IOP(3/33=1)\\9_11_07\\0,1\C,0,0.6727
 49,0.,5.\C,0,-0.672749,0.,5.\H,0,1.242623,0.162327,5.920604\H,0,1.2426
 23,-0.162327,4.079396\H,0,-1.242623,0.162327,5.920604\H,0,-1.242623,-0
 .162327,4.079396\\Version=x86_64-Linux-G03RevB.05\HF=-78.5929908\RMSD=
 1.491e-09\Dipole=0.,0.,0.\PG=D02H [C2"(C1.C1),SG(H4)]\\@


 IN SO FAR AS QUANTUM MECHANICS IS CORRECT, CHEMICAL 
 QUESTIONS ARE PROBLEMS IN APPLIED MATHEMATICS.

                    -- EYRING, WALTER, & KIMBALL, 1944
 Job cpu time:  0 days  0 hours  0 minutes 10.7 seconds.
 File lengths (MBytes):  RWF=     13 Int=      0 D2E=      0 Chk=     10 Scr=      1
 Normal termination of Gaussian 03 at Fri Nov  9 15:53:19 2007.
