 Entering Gaussian System, Link 0=/home/apps/gaussian_6_9/g09/g09
 Initial command:
 /home/apps/gaussian_6_9/g09/l1.exe /scratch/Gau-9903.inp -scrdir=/scratch/
 Entering Link 1 = /home/apps/gaussian_6_9/g09/l1.exe PID=      9904.
  
 Copyright (c) 1988,1990,1992,1993,1995,1998,2003,2009, Gaussian, Inc.
                  All Rights Reserved.
  
 This is part of the Gaussian(R) 09 program.  It is based on
 the Gaussian(R) 03 system (copyright 2003, Gaussian, Inc.),
 the Gaussian(R) 98 system (copyright 1998, Gaussian, Inc.),
 the Gaussian(R) 94 system (copyright 1995, Gaussian, Inc.),
 the Gaussian 92(TM) system (copyright 1992, Gaussian, Inc.),
 the Gaussian 90(TM) system (copyright 1990, Gaussian, Inc.),
 the Gaussian 88(TM) system (copyright 1988, Gaussian, Inc.),
 the Gaussian 86(TM) system (copyright 1986, Carnegie Mellon
 University), and the Gaussian 82(TM) system (copyright 1983,
 Carnegie Mellon University). Gaussian is a federally registered
 trademark of Gaussian, Inc.
  
 This software contains proprietary and confidential information,
 including trade secrets, belonging to Gaussian, Inc.
  
 This software is provided under written license and may be
 used, copied, transmitted, or stored only in accord with that
 written license.
  
 The following legend is applicable only to US Government
 contracts under FAR:
  
                    RESTRICTED RIGHTS LEGEND
  
 Use, reproduction and disclosure by the US Government is
 subject to restrictions as set forth in subparagraphs (a)
 and (c) of the Commercial Computer Software - Restricted
 Rights clause in FAR 52.227-19.
  
 Gaussian, Inc.
 340 Quinnipiac St., Bldg. 40, Wallingford CT 06492
  
  
 ---------------------------------------------------------------
 Warning -- This program may not be used in any manner that
 competes with the business of Gaussian, Inc. or will provide
 assistance to any competitor of Gaussian, Inc.  The licensee
 of this program is prohibited from giving any competitor of
 Gaussian, Inc. access to this program.  By using this program,
 the user acknowledges that Gaussian, Inc. is engaged in the
 business of creating and licensing software in the field of
 computational chemistry and represents and warrants to the
 licensee that it is not a competitor of Gaussian, Inc. and that
 it will not use this program in any manner prohibited above.
 ---------------------------------------------------------------
  

 Cite this work as:
 Gaussian 09, Revision A.01,
 M. J. Frisch, G. W. Trucks, H. B. Schlegel, G. E. Scuseria, 
 M. A. Robb, J. R. Cheeseman, G. Scalmani, V. Barone, B. Mennucci, 
 G. A. Petersson, H. Nakatsuji, M. Caricato, X. Li, H. P. Hratchian, 
 A. F. Izmaylov, J. Bloino, G. Zheng, J. L. Sonnenberg, M. Hada, 
 M. Ehara, K. Toyota, R. Fukuda, J. Hasegawa, M. Ishida, T. Nakajima, 
 Y. Honda, O. Kitao, H. Nakai, T. Vreven, J. A. Montgomery, Jr., 
 J. E. Peralta, F. Ogliaro, M. Bearpark, J. J. Heyd, E. Brothers, 
 K. N. Kudin, V. N. Staroverov, R. Kobayashi, J. Normand, 
 K. Raghavachari, A. Rendell, J. C. Burant, S. S. Iyengar, J. Tomasi, 
 M. Cossi, N. Rega, J. M. Millam, M. Klene, J. E. Knox, J. B. Cross, 
 V. Bakken, C. Adamo, J. Jaramillo, R. Gomperts, R. E. Stratmann, 
 O. Yazyev, A. J. Austin, R. Cammi, C. Pomelli, J. W. Ochterski, 
 R. L. Martin, K. Morokuma, V. G. Zakrzewski, G. A. Voth, 
 P. Salvador, J. J. Dannenberg, S. Dapprich, A. D. Daniels, 
 O. Farkas, J. B. Foresman, J. V. Ortiz, J. Cioslowski, 
 and D. J. Fox, Gaussian, Inc., Wallingford CT, 2009.
 
 ******************************************
 Gaussian 09:  EM64L-G09RevA.01  8-May-2009
                29-Mar-2018 
 ******************************************
 %mem=24GB
 %nprocshared=12
 Will use up to   12 processors via shared memory.
 ----------------------------------------------------------------------
 # b3lyp/3-21g nosymm guess=(local,save) pop=(full) geom=connectivity p
 unch=mo iop(3/33=1)
 ----------------------------------------------------------------------
 1/38=1,57=2/1;
 2/12=2,15=1,17=6,18=5,40=1/2;
 3/5=5,11=2,16=1,25=1,30=1,33=1,74=-5/1,2,3;
 4/9=10/1;
 5/5=2,38=5/2;
 6/7=3,28=1/1;
 99/5=1,9=1,10=32/99;
 -------------------
 Title Card Required
 -------------------
 Symbolic Z-matrix:
 Charge =  0 Multiplicity = 2
 C(PDBName=C,ResName=UNL,ResNum=1)  0.35109  -1.23151   0.89722 
 S(PDBName=S,ResName=UNL,ResNum=1)  0.07667  -2.64105   1.91022 
 C(PDBName=C,ResName=UNL,ResNum=1)  1.68887  -0.98021   0.80796 
 H(PDBName=H,ResName=UNL,ResNum=1)  2.12987  -0.17024   0.24313 
 C(PDBName=C,ResName=UNL,ResNum=1)  2.50563  -1.92377   1.54874 
 C(PDBName=C,ResName=UNL,ResNum=1)  1.77436  -2.87959   2.19125 
 H(PDBName=H,ResName=UNL,ResNum=1)  4.41133  -2.37383   2.43916 
 C(PDBName=C,ResName=UNL,ResNum=1)  3.99682  -1.81997   1.57191 
 H(PDBName=H,ResName=UNL,ResNum=1)  4.30317  -3.41421   0.12405 
 H(PDBName=H,ResName=UNL,ResNum=1)  6.55118  -2.79749   1.14103 
 H(PDBName=H,ResName=UNL,ResNum=1)  2.12768  -3.6921    2.79969 
 C(PDBName=C,ResName=UNL,ResNum=1)  4.60672  -2.35863   0.26756 
 C(PDBName=C,ResName=UNL,ResNum=1)  6.13617  -2.24507   0.27591 
 H(PDBName=H,ResName=UNL,ResNum=1)  8.68943  -3.22556  -0.15695 
 H(PDBName=H,ResName=UNL,ResNum=1)  4.2988   -0.76284   1.72568 
 H(PDBName=H,ResName=UNL,ResNum=1)  6.44478  -3.84076  -1.17294 
 C(PDBName=C,ResName=UNL,ResNum=1)  6.74276  -2.7847   -1.02623 
 H(PDBName=H,ResName=UNL,ResNum=1)  4.18818  -1.80693  -0.59684 
 H(PDBName=H,ResName=UNL,ResNum=1)  6.43572  -1.18912   0.42091 
 C(PDBName=C,ResName=UNL,ResNum=1)  8.27387  -2.67265  -1.02207 
 H(PDBName=H,ResName=UNL,ResNum=1)  8.63646  -4.26516  -2.47074 
 H(PDBName=H,ResName=UNL,ResNum=1)  8.57366  -1.61618  -0.87783 
 C(PDBName=C,ResName=UNL,ResNum=1)  8.88263  -3.20847  -2.316 
 H(PDBName=H,ResName=UNL,ResNum=1)  6.32913  -2.23393  -1.89288 
 H(PDBName=H,ResName=UNL,ResNum=1)  9.97505  -3.12464  -2.30417 
 H(PDBName=H,ResName=UNL,ResNum=1)  8.52079  -2.65694  -3.1912 
 
                          Input orientation:                          
 ---------------------------------------------------------------------
 Center     Atomic      Atomic             Coordinates (Angstroms)
 Number     Number       Type             X           Y           Z
 ---------------------------------------------------------------------
      1          6           0        0.351087   -1.231510    0.897221
      2         16           0        0.076671   -2.641048    1.910217
      3          6           0        1.688866   -0.980206    0.807960
      4          1           0        2.129873   -0.170239    0.243134
      5          6           0        2.505629   -1.923765    1.548739
      6          6           0        1.774360   -2.879593    2.191252
      7          1           0        4.411330   -2.373833    2.439157
      8          6           0        3.996822   -1.819967    1.571913
      9          1           0        4.303170   -3.414210    0.124052
     10          1           0        6.551175   -2.797486    1.141030
     11          1           0        2.127682   -3.692097    2.799686
     12          6           0        4.606725   -2.358627    0.267556
     13          6           0        6.136174   -2.245070    0.275906
     14          1           0        8.689434   -3.225564   -0.156954
     15          1           0        4.298796   -0.762840    1.725679
     16          1           0        6.444780   -3.840761   -1.172943
     17          6           0        6.742759   -2.784698   -1.026227
     18          1           0        4.188178   -1.806934   -0.596844
     19          1           0        6.435716   -1.189117    0.420912
     20          6           0        8.273872   -2.672647   -1.022065
     21          1           0        8.636463   -4.265163   -2.470744
     22          1           0        8.573662   -1.616182   -0.877829
     23          6           0        8.882626   -3.208474   -2.316003
     24          1           0        6.329128   -2.233930   -1.892875
     25          1           0        9.975053   -3.124636   -2.304165
     26          1           0        8.520788   -2.656938   -3.191203
 ---------------------------------------------------------------------
                    Distance matrix (angstroms):
                    1          2          3          4          5
     1  C    0.000000
     2  S    1.757345   0.000000
     3  C    1.364102   2.563696   0.000000
     4  H    2.172143   3.619351   1.081463   0.000000
     5  C    2.354940   2.558319   1.451261   2.218254   0.000000
     6  C    2.533061   1.737248   2.351271   3.355913   1.364252
     7  H    4.490884   4.374980   3.466239   3.857900   2.151070
     8  C    3.754048   4.019479   2.572058   2.823607   1.494981
     9  H    4.580494   4.653113   3.636852   3.906501   2.735382
    10  H    6.399439   6.521911   5.201489   5.220781   4.158853
    11  H    3.581920   2.470325   3.393212   4.351947   2.198797
    12  C    4.447171   4.826954   3.272000   3.305213   2.499028
    13  C    5.905977   6.288509   4.654193   4.511812   3.860596
    14  H    8.638030   8.876629   7.414893   7.247270   6.545496
    15  H    4.060837   4.624723   2.775102   2.693203   2.143479
    16  H    6.944556   7.176211   5.892832   5.839215   5.157455
    17  C    6.853139   7.285607   5.671179   5.452100   5.032388
    18  H    4.157717   4.887289   2.983876   2.760607   2.729129
    19  H    6.103391   6.690559   4.767183   4.428318   4.154189
    20  C    8.278349   8.705939   7.040998   6.753629   6.359441
    21  H    9.444241   9.751954   8.355235   8.152868   7.695811
    22  H    8.420779   9.001245   7.116654   6.698487   6.542466
    23  C    9.328470   9.784056   8.153190   7.834522   7.566558
    24  H    6.672815   7.329562   5.513471   5.143452   5.153645
    25  H   10.317632  10.769069   9.107403   8.761509   8.489950
    26  H    9.246138   9.865488   8.091965   7.669559   7.693291
                    6          7          8          9         10
     6  C    0.000000
     7  H    2.696453   0.000000
     8  C    2.538843   1.109368   0.000000
     9  H    3.309684   2.540432   2.175261   0.000000
    10  H    4.891592   2.538415   2.768740   2.543250   0.000000
    11  H    1.074798   2.661362   2.916502   3.459622   4.808197
    12  C    3.463279   2.180427   1.537362   1.107698   2.176336
    13  C    4.805891   2.769715   2.537159   2.179415   1.107172
    14  H    7.311089   5.076161   5.194737   4.399303   2.537748
    15  H    3.327188   1.765507   1.110113   3.097578   3.091086
    16  H    5.835621   4.397052   4.196468   2.539810   2.540514
    17  C    5.919980   4.196815   3.901437   2.769661   2.175746
    18  H    3.840650   3.096526   2.177222   1.765290   3.095990
    19  H    5.264984   3.094350   2.769653   3.096275   1.765999
    20  C    7.253405   5.195053   5.074342   4.198806   2.768077
    21  H    8.410854   6.748037   6.621807   5.121964   4.421246
    22  H    7.566107   5.376006   5.195212   4.740651   3.092204
    23  C    8.423239   6.580324   6.396477   5.193035   4.189947
    24  H    6.151657   4.739623   4.197115   3.092824   3.093781
    25  H    9.355222   7.349682   7.243300   6.176597   4.868196
    26  H    8.633347   6.976299   6.622240   5.417811   4.761026
                   11         12         13         14         15
    11  H    0.000000
    12  C    3.786222   0.000000
    13  C    4.952914   1.533682   0.000000
    14  H    7.212209   4.195271   2.769092   0.000000
    15  H    3.801023   2.183456   2.770344   5.374665   0.000000
    16  H    5.868664   2.765900   2.177299   2.539522   4.741398
    17  C    6.062996   2.533387   1.534501   2.177049   4.199268
    18  H    4.397260   1.107580   2.179070   4.739970   2.548820
    19  H    5.521108   2.176346   1.107154   3.091972   2.539794
    20  C    7.308947   3.899961   2.537184   1.107622   5.196026
    21  H    8.394645   5.231821   4.228038   2.537163   6.977936
    22  H    7.706114   4.195202   2.769107   1.767251   5.077492
    23  C    8.487251   5.067578   3.897324   2.167743   6.582387
    24  H    6.465178   2.765806   2.177376   3.093187   4.402305
    25  H    9.378301   6.001622   4.708226   2.504699   7.351028
    26  H    8.822364   5.231815   4.228104   3.091673   6.751930
                   16         17         18         19         20
    16  H    0.000000
    17  C    1.107062   0.000000
    18  H    3.092021   2.768804   0.000000
    19  H    3.093812   2.175860   2.543413   0.000000
    20  C    2.175507   1.535213   4.197996   2.768007   0.000000
    21  H    2.582224   2.804375   5.416792   4.760989   2.183174
    22  H    3.093216   2.177075   4.398614   2.537701   1.107608
    23  C    2.765767   2.534194   5.192077   4.189973   1.527078
    24  H    1.764535   1.107030   2.538836   2.540985   2.175503
    25  H    3.775623   3.492336   6.175695   4.868181   2.177634
    26  H    3.128038   2.804431   5.121007   4.421470   2.183203
                   21         22         23         24         25
    21  H    0.000000
    22  H    3.091670   0.000000
    23  C    1.095962   2.167763   0.000000
    24  H    3.127880   2.539658   2.765705   0.000000
    25  H    1.766458   2.504748   1.095703   3.775617   0.000000
    26  H    1.766021   2.537256   1.095944   2.582240   1.766484
                   26
    26  H    0.000000
 Symmetry turned off by external request.
 Stoichiometry    C10H15S(2)
 Framework group  C1[X(C10H15S)]
 Deg. of freedom    72
 Full point group                 C1      NOp   1
 Rotational constants (GHZ):      3.5961868      0.2605658      0.2584547
 Standard basis: 3-21G (6D, 7F)
                         Coordinates in L301:                         
 ---------------------------------------------------------------------
 Center     Atomic      Atomic             Coordinates (Angstroms)
 Number     Number       Type             X           Y           Z
 ---------------------------------------------------------------------
      1          6           0        0.351087   -1.231510    0.897221
      2         16           0        0.076671   -2.641048    1.910217
      3          6           0        1.688866   -0.980206    0.807960
      4          1           0        2.129873   -0.170239    0.243134
      5          6           0        2.505629   -1.923765    1.548739
      6          6           0        1.774360   -2.879593    2.191252
      7          1           0        4.411330   -2.373833    2.439157
      8          6           0        3.996822   -1.819967    1.571913
      9          1           0        4.303170   -3.414210    0.124052
     10          1           0        6.551175   -2.797486    1.141030
     11          1           0        2.127682   -3.692097    2.799686
     12          6           0        4.606725   -2.358627    0.267556
     13          6           0        6.136174   -2.245070    0.275906
     14          1           0        8.689434   -3.225564   -0.156954
     15          1           0        4.298796   -0.762840    1.725679
     16          1           0        6.444780   -3.840761   -1.172943
     17          6           0        6.742759   -2.784698   -1.026227
     18          1           0        4.188178   -1.806934   -0.596844
     19          1           0        6.435716   -1.189117    0.420912
     20          6           0        8.273872   -2.672647   -1.022065
     21          1           0        8.636463   -4.265163   -2.470744
     22          1           0        8.573662   -1.616182   -0.877829
     23          6           0        8.882626   -3.208474   -2.316003
     24          1           0        6.329128   -2.233930   -1.892875
     25          1           0        9.975053   -3.124636   -2.304165
     26          1           0        8.520788   -2.656938   -3.191203
 ---------------------------------------------------------------------
 FixB: optimizing general contractions.
 Ernie: Thresh=  0.10000D-02 Tol=  0.10000D-05 Strict=F.
 IA=     1 NL=   1 NS=   0.
 IA=     1 L=0 SC=0 ISt=    0 NBk=    0 NP=    0 IndPr=    0.
 IA=     1 NL=   2 NS=   1.
 IA=     1 L=1 SC=0 ISt=    0 NBk=    0 NP=    0 IndPr=    0.
 IA=     2 NL=   1 NS=   0.
 IA=     2 L=0 SC=0 ISt=    0 NBk=    0 NP=    0 IndPr=    0.
 IA=     2 NL=   3 NS=   1.
 IA=     2 L=1 SC=0 ISt=    1 NBk=    2 NP=    5 IndPr=    0.
 DoElim:  L=1 select primitive    1 from    2 using    1
 DoElim:  L=1 select primitive    5 from    1 using    2
 DoElim:  L=1 select primitive    1 from    2 using    1
 DoElim:  L=1 select primitive    5 from    1 using    2
 Delete L=1 primitive    3 from    2 C=  0.00D+00.
 Delete L=1 primitive    2 from    2 C=  0.00D+00.
 Delete L=1 primitive    1 from    2 C=  0.00D+00.
 Delete L=1 primitive    5 from    1 C=  0.00D+00.
 Delete L=1 primitive    4 from    1 C=  0.00D+00.
 IA=     2 L=1 SC=0 ISt=    0 NBk=    0 NP=    0 IndPr=    5.
 IA=     3 NL=   1 NS=   0.
 IA=     3 L=0 SC=0 ISt=    0 NBk=    0 NP=    0 IndPr=    0.
 IA=     3 NL=   2 NS=   1.
 IA=     3 L=1 SC=0 ISt=    0 NBk=    0 NP=    0 IndPr=    0.
 IA=     4 NL=   2 NS=   1.
 IA=     4 L=0 SC=0 ISt=    0 NBk=    0 NP=    0 IndPr=    0.
 IA=     5 NL=   1 NS=   0.
 IA=     5 L=0 SC=0 ISt=    0 NBk=    0 NP=    0 IndPr=    0.
 IA=     5 NL=   2 NS=   1.
 IA=     5 L=1 SC=0 ISt=    0 NBk=    0 NP=    0 IndPr=    0.
 IA=     6 NL=   1 NS=   0.
 IA=     6 L=0 SC=0 ISt=    0 NBk=    0 NP=    0 IndPr=    0.
 IA=     6 NL=   2 NS=   1.
 IA=     6 L=1 SC=0 ISt=    0 NBk=    0 NP=    0 IndPr=    0.
 IA=     7 NL=   2 NS=   1.
 IA=     7 L=0 SC=0 ISt=    0 NBk=    0 NP=    0 IndPr=    0.
 IA=     8 NL=   1 NS=   0.
 IA=     8 L=0 SC=0 ISt=    0 NBk=    0 NP=    0 IndPr=    0.
 IA=     8 NL=   2 NS=   1.
 IA=     8 L=1 SC=0 ISt=    0 NBk=    0 NP=    0 IndPr=    0.
 IA=     9 NL=   2 NS=   1.
 IA=     9 L=0 SC=0 ISt=    0 NBk=    0 NP=    0 IndPr=    0.
 IA=    10 NL=   2 NS=   1.
 IA=    10 L=0 SC=0 ISt=    0 NBk=    0 NP=    0 IndPr=    0.
 IA=    11 NL=   2 NS=   1.
 IA=    11 L=0 SC=0 ISt=    0 NBk=    0 NP=    0 IndPr=    0.
 IA=    12 NL=   1 NS=   0.
 IA=    12 L=0 SC=0 ISt=    0 NBk=    0 NP=    0 IndPr=    0.
 IA=    12 NL=   2 NS=   1.
 IA=    12 L=1 SC=0 ISt=    0 NBk=    0 NP=    0 IndPr=    0.
 IA=    13 NL=   1 NS=   0.
 IA=    13 L=0 SC=0 ISt=    0 NBk=    0 NP=    0 IndPr=    0.
 IA=    13 NL=   2 NS=   1.
 IA=    13 L=1 SC=0 ISt=    0 NBk=    0 NP=    0 IndPr=    0.
 IA=    14 NL=   2 NS=   1.
 IA=    14 L=0 SC=0 ISt=    0 NBk=    0 NP=    0 IndPr=    0.
 IA=    15 NL=   2 NS=   1.
 IA=    15 L=0 SC=0 ISt=    0 NBk=    0 NP=    0 IndPr=    0.
 IA=    16 NL=   2 NS=   1.
 IA=    16 L=0 SC=0 ISt=    0 NBk=    0 NP=    0 IndPr=    0.
 IA=    17 NL=   1 NS=   0.
 IA=    17 L=0 SC=0 ISt=    0 NBk=    0 NP=    0 IndPr=    0.
 IA=    17 NL=   2 NS=   1.
 IA=    17 L=1 SC=0 ISt=    0 NBk=    0 NP=    0 IndPr=    0.
 IA=    18 NL=   2 NS=   1.
 IA=    18 L=0 SC=0 ISt=    0 NBk=    0 NP=    0 IndPr=    0.
 IA=    19 NL=   2 NS=   1.
 IA=    19 L=0 SC=0 ISt=    0 NBk=    0 NP=    0 IndPr=    0.
 IA=    20 NL=   1 NS=   0.
 IA=    20 L=0 SC=0 ISt=    0 NBk=    0 NP=    0 IndPr=    0.
 IA=    20 NL=   2 NS=   1.
 IA=    20 L=1 SC=0 ISt=    0 NBk=    0 NP=    0 IndPr=    0.
 IA=    21 NL=   2 NS=   1.
 IA=    21 L=0 SC=0 ISt=    0 NBk=    0 NP=    0 IndPr=    0.
 IA=    22 NL=   2 NS=   1.
 IA=    22 L=0 SC=0 ISt=    0 NBk=    0 NP=    0 IndPr=    0.
 IA=    23 NL=   1 NS=   0.
 IA=    23 L=0 SC=0 ISt=    0 NBk=    0 NP=    0 IndPr=    0.
 IA=    23 NL=   2 NS=   1.
 IA=    23 L=1 SC=0 ISt=    0 NBk=    0 NP=    0 IndPr=    0.
 IA=    24 NL=   2 NS=   1.
 IA=    24 L=0 SC=0 ISt=    0 NBk=    0 NP=    0 IndPr=    0.
 IA=    25 NL=   2 NS=   1.
 IA=    25 L=0 SC=0 ISt=    0 NBk=    0 NP=    0 IndPr=    0.
 IA=    26 NL=   2 NS=   1.
 IA=    26 L=0 SC=0 ISt=    0 NBk=    0 NP=    0 IndPr=    0.
 LdAtmC:  AtmChg=     6.000000    16.000000     6.000000     1.000000     6.000000
 LdAtmC:  AtmChg=     6.000000     1.000000     6.000000     1.000000     1.000000
 LdAtmC:  AtmChg=     1.000000     6.000000     6.000000     1.000000     1.000000
 LdAtmC:  AtmChg=     1.000000     6.000000     1.000000     1.000000     6.000000
 LdAtmC:  AtmChg=     1.000000     1.000000     6.000000     1.000000     1.000000
 LdAtmC:  AtmChg=     1.000000
 AtZEff=     -3.6000000    -13.6000000     -3.6000000     -1.0000000     -3.6000000
 AtZEff=     -3.6000000     -1.0000000     -3.6000000     -1.0000000     -1.0000000
 AtZEff=     -1.0000000     -3.6000000     -3.6000000     -1.0000000     -1.0000000
 AtZEff=     -1.0000000     -3.6000000     -1.0000000     -1.0000000     -3.6000000
 AtZEff=     -1.0000000     -1.0000000     -3.6000000     -1.0000000     -1.0000000
 AtZEff=     -1.0000000
 Integral buffers will be    131072 words long.
 Raffenetti 2 integral format.
 Two-electron integral symmetry is turned off.
   133 basis functions,   222 primitive gaussians,   133 cartesian basis functions
    46 alpha electrons       45 beta electrons
       nuclear repulsion energy       631.7098725473 Hartrees.



 Warning!  S  atom    2 may be hypervalent but has no d functions.



 NAtoms=   26 NActive=   26 NUniq=   26 SFac= 7.50D-01 NAtFMM=   80 NAOKFM=F Big=F
 NPDir=0 NMtPBC=     1 NCelOv=     1 NCel=       1 NClECP=     1 NCelD=      1
         NCelK=      1 NCelE2=     1 NClLst=     1 CellRange=     0.0.
 One-electron integrals computed using PRISM.
 Entering OneElI...
 Calculate overlap and kinetic energy integrals
    NBasis = 133  MinDer = 0  MaxDer = 0
 Requested accuracy = 0.1000D-12
 PrsmSu:  NPrtUS=  12 ThrOK=T IAlg=1
 PRISM was handed   268372797 working-precision words and  1814 shell-pairs
 PRISM was handed   268372797 working-precision words and  1814 shell-pairs
 PRISM was handed   268372797 working-precision words and  1814 shell-pairs
 PRISM was handed   268372797 working-precision words and  1814 shell-pairs
 PRISM was handed   268372797 working-precision words and  1814 shell-pairs
 PRISM was handed   268372797 working-precision words and  1814 shell-pairs
 PRISM was handed   268372797 working-precision words and  1814 shell-pairs
 PRISM was handed   268372797 working-precision words and  1814 shell-pairs
 PRISM was handed   268372797 working-precision words and  1814 shell-pairs
 PRISM was handed   268372797 working-precision words and  1814 shell-pairs
 PRISM was handed   268372797 working-precision words and  1814 shell-pairs
 PRISM was handed   268372797 working-precision words and  1814 shell-pairs
 IPart=  3 NShTot=         155 NBatch=          16 AvBLen=         9.7
 IPart=  7 NShTot=         149 NBatch=          16 AvBLen=         9.3
 IPart=  6 NShTot=         149 NBatch=          16 AvBLen=         9.3
 IPart=  5 NShTot=         150 NBatch=          16 AvBLen=         9.4
 IPart=  2 NShTot=         157 NBatch=          17 AvBLen=         9.2
 IPart=  0 NShTot=         161 NBatch=          20 AvBLen=         8.1
 IPart=  1 NShTot=         158 NBatch=          18 AvBLen=         8.8
 IPart= 10 NShTot=         145 NBatch=          15 AvBLen=         9.7
 IPart=  4 NShTot=         153 NBatch=          16 AvBLen=         9.6
 IPart= 11 NShTot=         142 NBatch=          14 AvBLen=        10.1
 IPart=  8 NShTot=         148 NBatch=          16 AvBLen=         9.3
 IPart=  9 NShTot=         147 NBatch=          15 AvBLen=         9.8
 *** Overlap *** 
                1             2             3             4             5 
      1  0.100000D+01
      2  0.191447D+00  0.100000D+01
      3  0.000000D+00  0.000000D+00  0.100000D+01
      4  0.000000D+00  0.000000D+00  0.000000D+00  0.100000D+01
      5  0.000000D+00  0.000000D+00  0.000000D+00  0.000000D+00  0.100000D+01
      6  0.180314D+00  0.761357D+00  0.000000D+00  0.000000D+00  0.000000D+00
      7  0.000000D+00  0.000000D+00  0.528959D+00  0.000000D+00  0.000000D+00
      8  0.000000D+00  0.000000D+00  0.000000D+00  0.528959D+00  0.000000D+00
      9  0.000000D+00  0.000000D+00  0.000000D+00  0.000000D+00  0.528959D+00
     10  0.000000D+00  0.329453D-04 -0.208722D-04 -0.107210D-03  0.770488D-04
     11  0.000000D+00  0.853554D-03 -0.446020D-03 -0.229098D-02  0.164647D-02
     12  0.000000D+00  0.200343D-03  0.205758D-03 -0.543325D-03  0.390472D-03
     13  0.000000D+00  0.102906D-02 -0.543325D-03 -0.247925D-02  0.200566D-02
     14  0.000000D+00 -0.739560D-03  0.390472D-03  0.200566D-02 -0.112988D-02
     15  0.358601D-02  0.553842D-01 -0.140237D-01 -0.720328D-01  0.517680D-01
     16  0.166234D-02  0.179593D-01  0.257037D-01 -0.248220D-01  0.178389D-01
     17  0.853863D-02  0.922478D-01 -0.248220D-01 -0.969620D-01  0.916294D-01
     18 -0.613648D-02 -0.662959D-01  0.178389D-01  0.916294D-01 -0.353154D-01
     19  0.309763D-01  0.179365D+00 -0.209717D-01 -0.107721D+00  0.774164D-01
     20  0.118484D-01  0.582840D-01  0.100251D+00 -0.357877D-01  0.257196D-01
     21  0.608594D-01  0.299376D+00 -0.357877D-01 -0.766048D-01  0.132109D+00
     22 -0.437379D-01 -0.215153D+00  0.257196D-01  0.132109D+00  0.122758D-01
     23  0.000000D+00  0.565461D-02  0.157738D-01  0.296313D-02 -0.105248D-02
     24  0.565461D-02  0.105030D+00  0.172133D+00  0.323355D-01 -0.114853D-01
     25 -0.157738D-01 -0.172133D+00 -0.245802D+00 -0.574846D-01  0.204180D-01
     26 -0.296313D-02 -0.323355D-01 -0.574846D-01  0.494102D-01  0.383556D-02
     27  0.105248D-02  0.114853D-01  0.204180D-01  0.383556D-02  0.588464D-01
     28  0.510394D-01  0.277042D+00  0.207511D+00  0.389812D-01 -0.138458D-01
     29 -0.110745D+00 -0.482899D+00 -0.188084D+00 -0.701738D-01  0.249251D-01
     30 -0.208037D-01 -0.907134D-01 -0.701738D-01  0.172294D+00  0.468223D-02
     31  0.738930D-02  0.322206D-01  0.249251D-01  0.468223D-02  0.183813D+00
     32  0.205513D-05  0.133594D-02  0.289683D-02  0.172833D-02 -0.106521D-02
     33  0.857300D-02  0.644146D-01  0.584807D-01  0.348911D-01 -0.215043D-01
     34  0.000000D+00  0.000000D+00  0.321265D-05 -0.103222D-05  0.000000D+00
     35  0.000000D+00  0.715795D-03  0.181348D-02 -0.582671D-03  0.548383D-03
     36 -0.321265D-05 -0.181348D-02 -0.424862D-02  0.148087D-02 -0.139373D-02
     37  0.103222D-05  0.582671D-03  0.148087D-02 -0.115420D-03  0.447805D-03
     38  0.000000D+00 -0.548383D-03 -0.139373D-02  0.447805D-03 -0.610684D-04
     39  0.419397D-02  0.368762D-01  0.421532D-01 -0.135438D-01  0.127468D-01
     40 -0.146526D-01 -0.104373D+00 -0.984776D-01  0.391574D-01 -0.368532D-01
     41  0.470789D-02  0.335350D-01  0.391574D-01  0.108129D-01  0.118409D-01
     42 -0.443085D-02 -0.315616D-01 -0.368532D-01  0.118409D-01  0.122500D-01
     43  0.000000D+00  0.000000D+00  0.000000D+00  0.000000D+00  0.000000D+00
     44  0.000000D+00  0.216399D-03  0.361882D-03 -0.419043D-03  0.329021D-03
     45  0.000000D+00 -0.361882D-03 -0.497384D-03  0.701776D-03 -0.551016D-03
     46  0.000000D+00  0.419043D-03  0.701776D-03 -0.703959D-03  0.638051D-03
     47  0.000000D+00 -0.329021D-03 -0.551016D-03  0.638051D-03 -0.392315D-03
     48  0.232402D-02  0.228499D-01  0.170864D-01 -0.197852D-01  0.155348D-01
     49 -0.536341D-02 -0.427842D-01 -0.182610D-01  0.377674D-01 -0.296540D-01
     50  0.621057D-02  0.495421D-01  0.377674D-01 -0.293782D-01  0.343379D-01
     51 -0.487637D-02 -0.388992D-01 -0.296540D-01  0.343379D-01 -0.126065D-01
     52  0.000000D+00  0.000000D+00  0.000000D+00  0.000000D+00  0.000000D+00
     53  0.000000D+00  0.195776D-04  0.368793D-04 -0.103757D-04  0.140054D-04
     54  0.000000D+00  0.000000D+00  0.000000D+00  0.000000D+00  0.000000D+00
     55  0.000000D+00  0.000000D+00  0.000000D+00  0.000000D+00  0.000000D+00
     56  0.000000D+00  0.000000D+00  0.000000D+00  0.000000D+00  0.000000D+00
     57  0.000000D+00  0.000000D+00  0.000000D+00  0.000000D+00  0.000000D+00
     58  0.000000D+00  0.000000D+00  0.000000D+00  0.000000D+00  0.000000D+00
     59  0.127730D-04  0.328544D-03  0.595264D-03 -0.960814D-04  0.110162D-03
     60 -0.754740D-04 -0.158820D-02 -0.270636D-02  0.468345D-03 -0.536979D-03
     61  0.121822D-04  0.256351D-03  0.468345D-03  0.119639D-03  0.866736D-04
     62 -0.139675D-04 -0.293918D-03 -0.536979D-03  0.866736D-04  0.958592D-04
     63  0.000000D+00  0.000000D+00  0.000000D+00  0.000000D+00  0.000000D+00
     64  0.000000D+00  0.127585D-04  0.233446D-04 -0.128930D-04 -0.456705D-05
     65  0.000000D+00  0.000000D+00  0.000000D+00  0.000000D+00  0.000000D+00
     66  0.000000D+00  0.000000D+00  0.000000D+00  0.000000D+00  0.000000D+00
     67  0.000000D+00  0.000000D+00  0.000000D+00  0.000000D+00  0.000000D+00
     68  0.495078D-04  0.927868D-03  0.786895D-03 -0.108985D-02  0.842645D-03
     69  0.000000D+00  0.000000D+00  0.000000D+00  0.000000D+00  0.000000D+00
     70  0.000000D+00  0.000000D+00  0.000000D+00  0.000000D+00  0.000000D+00
     71  0.000000D+00  0.000000D+00  0.000000D+00  0.000000D+00  0.000000D+00
     72  0.000000D+00  0.000000D+00  0.000000D+00  0.000000D+00  0.000000D+00
     73  0.000000D+00  0.000000D+00  0.000000D+00  0.000000D+00  0.000000D+00
     74  0.000000D+00  0.139888D-04  0.290081D-04 -0.768286D-05 -0.429204D-05
     75 -0.187054D-05 -0.791462D-04 -0.156715D-03  0.436650D-04  0.243935D-04
     76  0.000000D+00  0.209621D-04  0.436650D-04 -0.341427D-05 -0.646068D-05
     77  0.000000D+00  0.117105D-04  0.243935D-04 -0.646068D-05  0.454126D-05
     78  0.000000D+00  0.000000D+00  0.000000D+00  0.000000D+00  0.000000D+00
     79  0.000000D+00  0.000000D+00  0.000000D+00  0.000000D+00  0.000000D+00
     80  0.000000D+00  0.000000D+00  0.000000D+00  0.000000D+00  0.000000D+00
     81  0.000000D+00  0.000000D+00  0.000000D+00  0.000000D+00  0.000000D+00
     82  0.000000D+00  0.000000D+00  0.000000D+00  0.000000D+00  0.000000D+00
     83  0.000000D+00  0.000000D+00  0.000000D+00  0.000000D+00  0.000000D+00
     84  0.000000D+00  0.000000D+00  0.000000D+00  0.000000D+00  0.000000D+00
     85  0.000000D+00  0.000000D+00  0.000000D+00  0.000000D+00  0.000000D+00
     86  0.000000D+00  0.000000D+00  0.000000D+00  0.000000D+00  0.000000D+00
     87  0.000000D+00  0.000000D+00  0.000000D+00  0.000000D+00  0.000000D+00
     88  0.000000D+00  0.000000D+00  0.000000D+00  0.000000D+00  0.000000D+00
     89  0.000000D+00  0.000000D+00  0.000000D+00  0.000000D+00  0.000000D+00
     90  0.484089D-05  0.135634D-03  0.251366D-03  0.298420D-04  0.527510D-04
     91  0.000000D+00  0.000000D+00  0.000000D+00  0.000000D+00  0.000000D+00
     92  0.000000D+00  0.000000D+00  0.000000D+00  0.000000D+00  0.000000D+00
     93  0.000000D+00  0.000000D+00  0.000000D+00  0.000000D+00  0.000000D+00
     94  0.000000D+00  0.000000D+00  0.000000D+00  0.000000D+00  0.000000D+00
     95  0.000000D+00  0.000000D+00  0.000000D+00  0.000000D+00  0.000000D+00
     96  0.000000D+00  0.000000D+00  0.000000D+00  0.000000D+00  0.000000D+00
     97  0.000000D+00  0.000000D+00  0.000000D+00  0.000000D+00  0.000000D+00
     98  0.000000D+00  0.000000D+00  0.000000D+00  0.000000D+00  0.000000D+00
     99  0.000000D+00  0.000000D+00  0.000000D+00  0.000000D+00  0.000000D+00
    100  0.000000D+00  0.000000D+00  0.000000D+00  0.000000D+00  0.000000D+00
    101  0.000000D+00  0.000000D+00  0.000000D+00  0.000000D+00  0.000000D+00
    102  0.000000D+00  0.000000D+00  0.000000D+00  0.000000D+00  0.000000D+00
    103  0.291943D-05  0.892252D-04  0.160256D-03 -0.240326D-04 -0.623997D-04
    104  0.000000D+00  0.000000D+00  0.000000D+00  0.000000D+00  0.000000D+00
    105  0.000000D+00  0.000000D+00  0.000000D+00  0.000000D+00  0.000000D+00
    106  0.000000D+00  0.000000D+00  0.000000D+00  0.000000D+00  0.000000D+00
    107  0.000000D+00  0.000000D+00  0.000000D+00  0.000000D+00  0.000000D+00
    108  0.000000D+00  0.000000D+00  0.000000D+00  0.000000D+00  0.000000D+00
    109  0.000000D+00  0.000000D+00  0.000000D+00  0.000000D+00  0.000000D+00
    110  0.000000D+00  0.000000D+00  0.000000D+00  0.000000D+00  0.000000D+00
    111  0.000000D+00  0.000000D+00  0.000000D+00  0.000000D+00  0.000000D+00
    112  0.000000D+00  0.000000D+00  0.000000D+00  0.000000D+00  0.000000D+00
    113  0.000000D+00  0.000000D+00  0.000000D+00  0.000000D+00  0.000000D+00
    114  0.000000D+00  0.000000D+00  0.000000D+00  0.000000D+00  0.000000D+00
    115  0.000000D+00  0.000000D+00  0.000000D+00  0.000000D+00  0.000000D+00
    116  0.000000D+00  0.000000D+00  0.000000D+00  0.000000D+00  0.000000D+00
    117  0.000000D+00  0.000000D+00  0.000000D+00  0.000000D+00  0.000000D+00
    118  0.000000D+00  0.000000D+00  0.000000D+00  0.000000D+00  0.000000D+00
    119  0.000000D+00  0.000000D+00  0.000000D+00  0.000000D+00  0.000000D+00
    120  0.000000D+00  0.000000D+00  0.000000D+00  0.000000D+00  0.000000D+00
    121  0.000000D+00  0.000000D+00  0.000000D+00  0.000000D+00  0.000000D+00
    122  0.000000D+00  0.000000D+00  0.000000D+00  0.000000D+00  0.000000D+00
    123  0.000000D+00  0.000000D+00  0.000000D+00  0.000000D+00  0.000000D+00
    124  0.000000D+00  0.000000D+00  0.000000D+00  0.000000D+00  0.000000D+00
    125  0.000000D+00  0.000000D+00  0.000000D+00  0.000000D+00  0.000000D+00
    126  0.000000D+00  0.000000D+00  0.000000D+00  0.000000D+00  0.000000D+00
    127  0.000000D+00  0.000000D+00  0.000000D+00  0.000000D+00  0.000000D+00
    128  0.000000D+00  0.000000D+00  0.000000D+00  0.000000D+00  0.000000D+00
    129  0.000000D+00  0.000000D+00  0.000000D+00  0.000000D+00  0.000000D+00
    130  0.000000D+00  0.000000D+00  0.000000D+00  0.000000D+00  0.000000D+00
    131  0.000000D+00  0.000000D+00  0.000000D+00  0.000000D+00  0.000000D+00
    132  0.000000D+00  0.000000D+00  0.000000D+00  0.000000D+00  0.000000D+00
    133  0.000000D+00  0.000000D+00  0.000000D+00  0.000000D+00  0.000000D+00
                6             7             8             9            10 
      6  0.100000D+01
      7  0.000000D+00  0.100000D+01
      8  0.000000D+00  0.000000D+00  0.100000D+01
      9  0.000000D+00  0.000000D+00  0.000000D+00  0.100000D+01
     10  0.489294D-02 -0.223617D-02 -0.114861D-01  0.825473D-02  0.100000D+01
     11  0.404361D-01 -0.175230D-01 -0.900067D-01  0.646853D-01  0.255563D+00
     12  0.301434D-02  0.118210D-01 -0.674689D-02  0.484880D-02  0.000000D+00
     13  0.154832D-01 -0.674689D-02 -0.215209D-01  0.249059D-01  0.000000D+00
     14 -0.111273D-01  0.484880D-02  0.249059D-01 -0.476463D-02  0.000000D+00
     15  0.211986D+00 -0.662318D-01 -0.340200D+00  0.244492D+00  0.507038D-01
     16  0.377329D-01  0.152117D+00 -0.631705D-01  0.453989D-01  0.000000D+00
     17  0.193815D+00 -0.631705D-01 -0.160060D+00  0.233191D+00  0.000000D+00
     18 -0.139290D+00  0.453989D-01  0.233191D+00 -0.317276D-02  0.000000D+00
     19  0.395380D+00 -0.763579D-01 -0.392212D+00  0.281872D+00  0.331322D-01
     20  0.895918D-01  0.373080D+00 -0.888741D-01  0.638713D-01  0.000000D+00
     21  0.460188D+00 -0.888741D-01 -0.661193D-01  0.328075D+00  0.000000D+00
     22 -0.330725D+00  0.638713D-01  0.328075D+00  0.154604D+00  0.000000D+00
     23  0.510394D-01  0.110745D+00  0.208037D-01 -0.738930D-02  0.000000D+00
     24  0.277042D+00  0.482899D+00  0.907134D-01 -0.322206D-01  0.000000D+00
     25 -0.207511D+00 -0.188084D+00 -0.701738D-01  0.249251D-01  0.000000D+00
     26 -0.389812D-01 -0.701738D-01  0.172294D+00  0.468223D-02  0.000000D+00
     27  0.138458D-01  0.249251D-01  0.468223D-02  0.183813D+00  0.000000D+00
     28  0.521665D+00  0.583639D+00  0.109638D+00 -0.389423D-01  0.432281D-03
     29 -0.583639D+00 -0.131311D+00 -0.122663D+00  0.435687D-01 -0.116067D-02
     30 -0.109638D+00 -0.122663D+00  0.498623D+00  0.818446D-02 -0.119569D-02
     31  0.389423D-01  0.435687D-01  0.818446D-02  0.518758D+00  0.793546D-03
     32  0.453773D-01  0.109765D+00  0.654884D-01 -0.403621D-01  0.000000D+00
     33  0.202766D+00  0.291559D+00  0.173952D+00 -0.107211D+00  0.785679D-05
     34  0.419397D-02  0.146526D-01 -0.470789D-02  0.443085D-02  0.000000D+00
     35  0.368762D-01  0.104373D+00 -0.335350D-01  0.315616D-01  0.000000D+00
     36 -0.421532D-01 -0.984776D-01  0.391574D-01 -0.368532D-01  0.000000D+00
     37  0.135438D-01  0.391574D-01  0.108129D-01  0.118409D-01  0.000000D+00
     38 -0.127468D-01 -0.368532D-01  0.118409D-01  0.122500D-01  0.000000D+00
     39  0.143791D+00  0.259092D+00 -0.832464D-01  0.783476D-01  0.440652D-03
     40 -0.259092D+00 -0.323059D+00  0.149999D+00 -0.141172D+00 -0.178254D-02
     41  0.832464D-01  0.149999D+00  0.955959D-01  0.453586D-01 -0.526392D-03
     42 -0.783476D-01 -0.141172D+00  0.453586D-01  0.101101D+00  0.265278D-03
     43  0.232402D-02  0.536341D-02 -0.621057D-02  0.487637D-02  0.000000D+00
     44  0.228499D-01  0.427842D-01 -0.495421D-01  0.388992D-01  0.398385D-04
     45 -0.170864D-01 -0.182610D-01  0.377674D-01 -0.296540D-01 -0.156145D-03
     46  0.197852D-01  0.377674D-01 -0.293782D-01  0.343379D-01  0.219402D-04
     47 -0.155348D-01 -0.296540D-01  0.343379D-01 -0.126065D-01 -0.258482D-04
     48  0.106047D+00  0.126228D+00 -0.146166D+00  0.114766D+00  0.513820D-02
     49 -0.126228D+00 -0.442020D-01  0.173981D+00 -0.136605D+00 -0.145276D-01
     50  0.146166D+00  0.173981D+00 -0.954151D-01  0.158183D+00  0.204130D-02
     51 -0.114766D+00 -0.136605D+00  0.158183D+00 -0.181539D-01 -0.240490D-02
     52  0.713379D-05  0.391935D-04 -0.110268D-04  0.148843D-04  0.000000D+00
     53  0.109378D-02  0.358996D-02 -0.101001D-02  0.136334D-02  0.000000D+00
     54  0.127730D-04  0.754740D-04 -0.121822D-04  0.139675D-04  0.000000D+00
     55  0.328544D-03  0.158820D-02 -0.256351D-03  0.293918D-03  0.000000D+00
     56 -0.595264D-03 -0.270636D-02  0.468345D-03 -0.536979D-03  0.000000D+00
     57  0.960814D-04  0.468345D-03  0.119639D-03  0.866736D-04  0.000000D+00
     58 -0.110162D-03 -0.536979D-03  0.866736D-04  0.958592D-04  0.000000D+00
     59  0.723804D-02  0.220686D-01 -0.356208D-02  0.408408D-02  0.000000D+00
     60 -0.220686D-01 -0.600484D-01  0.108607D-01 -0.124523D-01 -0.356514D-05
     61  0.356208D-02  0.108607D-01  0.548501D-02  0.200992D-02  0.000000D+00
     62 -0.408408D-02 -0.124523D-01  0.200992D-02  0.493358D-02  0.000000D+00
     63  0.450377D-05  0.240825D-04 -0.133006D-04 -0.471140D-05  0.000000D+00
     64  0.830989D-03  0.265479D-02 -0.146622D-02 -0.519372D-03  0.000000D+00
     65  0.000000D+00  0.000000D+00  0.000000D+00  0.000000D+00  0.000000D+00
     66  0.000000D+00  0.487181D-05 -0.123049D-05  0.000000D+00  0.000000D+00
     67  0.454561D-03  0.109429D-02 -0.151560D-02  0.117182D-02  0.000000D+00
     68  0.130661D-01  0.187647D-01 -0.259892D-01  0.200942D-01  0.750248D-03
     69  0.000000D+00  0.187054D-05  0.000000D+00  0.000000D+00  0.000000D+00
     70  0.139888D-04  0.791462D-04 -0.209621D-04 -0.117105D-04  0.000000D+00
     71 -0.290081D-04 -0.156715D-03  0.436650D-04  0.243935D-04  0.000000D+00
     72  0.768286D-05  0.436650D-04 -0.341427D-05 -0.646068D-05  0.000000D+00
     73  0.429204D-05  0.243935D-04 -0.646068D-05  0.454126D-05  0.000000D+00
     74  0.991483D-03  0.352873D-02 -0.934593D-03 -0.522111D-03  0.000000D+00
     75 -0.352873D-02 -0.115674D-01  0.332626D-02  0.185822D-02  0.000000D+00
     76  0.934593D-03  0.332626D-02  0.110515D-03 -0.492153D-03  0.000000D+00
     77  0.522111D-03  0.185822D-02 -0.492153D-03  0.716541D-03  0.000000D+00
     78  0.000000D+00  0.000000D+00  0.000000D+00  0.000000D+00  0.000000D+00
     79  0.000000D+00  0.000000D+00  0.000000D+00  0.000000D+00  0.000000D+00
     80  0.000000D+00  0.000000D+00  0.000000D+00  0.000000D+00  0.000000D+00
     81  0.000000D+00  0.000000D+00  0.000000D+00  0.000000D+00  0.000000D+00
     82  0.000000D+00  0.000000D+00  0.000000D+00  0.000000D+00  0.000000D+00
     83  0.504028D-05  0.243856D-04 -0.427240D-05 -0.261900D-05  0.000000D+00
     84 -0.243856D-04 -0.112940D-03  0.206705D-04  0.126711D-04  0.000000D+00
     85  0.427240D-05  0.206705D-04  0.141876D-05 -0.222000D-05  0.000000D+00
     86  0.261900D-05  0.126711D-04 -0.222000D-05  0.367941D-05  0.000000D+00
     87  0.000000D+00  0.000000D+00  0.000000D+00  0.000000D+00  0.000000D+00
     88  0.000000D+00  0.000000D+00  0.000000D+00  0.000000D+00  0.000000D+00
     89  0.571848D-04  0.305643D-03  0.362858D-04  0.641416D-04  0.000000D+00
     90  0.379152D-02  0.120995D-01  0.143645D-02  0.253918D-02  0.000000D+00
     91  0.000000D+00  0.000000D+00  0.000000D+00  0.000000D+00  0.000000D+00
     92  0.000000D+00  0.000000D+00  0.000000D+00  0.000000D+00  0.000000D+00
     93  0.000000D+00  0.000000D+00  0.000000D+00  0.000000D+00  0.000000D+00
     94  0.000000D+00  0.000000D+00  0.000000D+00  0.000000D+00  0.000000D+00
     95  0.000000D+00  0.000000D+00  0.000000D+00  0.000000D+00  0.000000D+00
     96  0.000000D+00  0.000000D+00  0.000000D+00  0.000000D+00  0.000000D+00
     97  0.000000D+00  0.000000D+00  0.000000D+00  0.000000D+00  0.000000D+00
     98  0.000000D+00  0.000000D+00  0.000000D+00  0.000000D+00  0.000000D+00
     99  0.000000D+00 -0.203014D-05  0.000000D+00  0.000000D+00  0.000000D+00
    100  0.000000D+00  0.000000D+00  0.000000D+00  0.000000D+00  0.000000D+00
    101  0.000000D+00  0.000000D+00  0.000000D+00  0.000000D+00  0.000000D+00
    102  0.364358D-04  0.189259D-03 -0.283820D-04 -0.736926D-04  0.000000D+00
    103  0.289687D-02  0.898544D-02 -0.134749D-02 -0.349870D-02  0.000000D+00
    104  0.000000D+00  0.000000D+00  0.000000D+00  0.000000D+00  0.000000D+00
    105  0.339674D-05  0.167073D-04  0.000000D+00 -0.130786D-05  0.000000D+00
    106  0.000000D+00  0.000000D+00  0.000000D+00  0.000000D+00  0.000000D+00
    107  0.000000D+00  0.000000D+00  0.000000D+00  0.000000D+00  0.000000D+00
    108  0.000000D+00  0.000000D+00  0.000000D+00  0.000000D+00  0.000000D+00
    109  0.000000D+00  0.000000D+00  0.000000D+00  0.000000D+00  0.000000D+00
    110  0.000000D+00  0.000000D+00  0.000000D+00  0.000000D+00  0.000000D+00
    111  0.000000D+00  0.000000D+00  0.000000D+00  0.000000D+00  0.000000D+00
    112  0.000000D+00  0.000000D+00  0.000000D+00  0.000000D+00  0.000000D+00
    113  0.000000D+00  0.000000D+00  0.000000D+00  0.000000D+00  0.000000D+00
    114  0.000000D+00  0.000000D+00  0.000000D+00  0.000000D+00  0.000000D+00
    115  0.000000D+00  0.000000D+00  0.000000D+00  0.000000D+00  0.000000D+00
    116  0.000000D+00  0.000000D+00  0.000000D+00  0.000000D+00  0.000000D+00
    117  0.000000D+00  0.000000D+00  0.000000D+00  0.000000D+00  0.000000D+00
    118  0.000000D+00  0.000000D+00  0.000000D+00  0.000000D+00  0.000000D+00
    119  0.000000D+00  0.000000D+00  0.000000D+00  0.000000D+00  0.000000D+00
    120  0.000000D+00  0.000000D+00  0.000000D+00  0.000000D+00  0.000000D+00
    121  0.000000D+00  0.000000D+00  0.000000D+00  0.000000D+00  0.000000D+00
    122  0.000000D+00  0.000000D+00  0.000000D+00  0.000000D+00  0.000000D+00
    123  0.000000D+00  0.000000D+00  0.000000D+00  0.000000D+00  0.000000D+00
    124  0.000000D+00  0.000000D+00  0.000000D+00  0.000000D+00  0.000000D+00
    125  0.000000D+00  0.000000D+00  0.000000D+00  0.000000D+00  0.000000D+00
    126  0.000000D+00  0.000000D+00  0.000000D+00  0.000000D+00  0.000000D+00
    127  0.000000D+00  0.000000D+00  0.000000D+00  0.000000D+00  0.000000D+00
    128  0.000000D+00  0.000000D+00  0.000000D+00  0.000000D+00  0.000000D+00
    129  0.000000D+00  0.140357D-05  0.000000D+00  0.000000D+00  0.000000D+00
    130  0.000000D+00  0.000000D+00  0.000000D+00  0.000000D+00  0.000000D+00
    131  0.000000D+00  0.000000D+00  0.000000D+00  0.000000D+00  0.000000D+00
    132  0.000000D+00  0.000000D+00  0.000000D+00  0.000000D+00  0.000000D+00
    133  0.000000D+00  0.000000D+00  0.000000D+00  0.000000D+00  0.000000D+00
               11            12            13            14            15 
     11  0.100000D+01
     12  0.000000D+00  0.100000D+01
     13  0.000000D+00  0.000000D+00  0.100000D+01
     14  0.000000D+00  0.000000D+00  0.000000D+00  0.100000D+01
     15  0.408201D+00  0.000000D+00  0.000000D+00  0.000000D+00  0.100000D+01
     16  0.000000D+00  0.313087D+00  0.000000D+00  0.000000D+00  0.000000D+00
     17  0.000000D+00  0.000000D+00  0.313087D+00  0.000000D+00  0.000000D+00
     18  0.000000D+00  0.000000D+00  0.000000D+00  0.313087D+00  0.000000D+00
     19  0.250233D+00  0.000000D+00  0.000000D+00  0.000000D+00  0.827205D+00
     20  0.000000D+00  0.709090D-01  0.000000D+00  0.000000D+00  0.000000D+00
     21  0.000000D+00  0.000000D+00  0.709090D-01  0.000000D+00  0.000000D+00
     22  0.000000D+00  0.000000D+00  0.000000D+00  0.709090D-01  0.000000D+00
     23  0.000000D+00  0.000000D+00  0.000000D+00  0.000000D+00  0.180776D-04
     24  0.000000D+00  0.000000D+00  0.000000D+00  0.000000D+00  0.166358D-02
     25 -0.110353D-05 -0.133143D-05 -0.150066D-05  0.000000D+00 -0.237904D-02
     26 -0.113683D-05 -0.150066D-05 -0.142067D-05  0.102600D-05 -0.245083D-02
     27  0.000000D+00  0.000000D+00  0.102600D-05  0.000000D+00  0.162655D-02
     28  0.405086D-02  0.175255D-02  0.180543D-02 -0.119822D-02  0.399932D-01
     29 -0.103131D-01 -0.318465D-02 -0.461979D-02  0.306603D-02 -0.741468D-01
     30 -0.106243D-01 -0.461979D-02 -0.345937D-02  0.315855D-02 -0.763842D-01
     31  0.705105D-02  0.306603D-02  0.315855D-02 -0.796423D-03  0.506942D-01
     32  0.000000D+00  0.000000D+00  0.000000D+00  0.000000D+00  0.110074D-05
     33  0.884076D-04  0.449897D-04  0.541403D-04 -0.365291D-04  0.223147D-02
     34  0.000000D+00  0.000000D+00  0.000000D+00  0.000000D+00  0.188489D-04
     35  0.000000D+00  0.000000D+00  0.000000D+00  0.000000D+00  0.171090D-02
     36 -0.176791D-05 -0.338356D-05 -0.103853D-05  0.000000D+00 -0.368682D-02
     37  0.000000D+00 -0.103853D-05  0.000000D+00  0.000000D+00 -0.108874D-02
     38  0.000000D+00  0.000000D+00  0.000000D+00  0.000000D+00  0.548673D-03
     39  0.412520D-02  0.268913D-02  0.794112D-03 -0.400196D-03  0.405264D-01
     40 -0.158230D-01 -0.904328D-02 -0.306145D-02  0.154283D-02 -0.113193D+00
     41 -0.467261D-02 -0.306145D-02  0.419740D-03  0.455605D-03 -0.334265D-01
     42  0.235478D-02  0.154283D-02  0.455605D-03  0.109420D-02  0.168454D-01
     43  0.000000D+00  0.000000D+00  0.000000D+00  0.000000D+00  0.398963D-02
     44  0.998354D-03  0.145209D-02 -0.204035D-03  0.240378D-03  0.593355D-01
     45 -0.322748D-02 -0.437935D-02  0.666634D-03 -0.785376D-03 -0.930766D-01
     46  0.453498D-03  0.666634D-03  0.271318D-03  0.110354D-03  0.130783D-01
     47 -0.534276D-03 -0.785376D-03  0.110354D-03  0.234976D-03 -0.154079D-01
     48  0.423555D-01  0.195386D-01 -0.274540D-02  0.323442D-02  0.219192D+00
     49 -0.113553D+00 -0.389118D-01  0.740121D-02 -0.871953D-02 -0.423568D+00
     50  0.159555D-01  0.740121D-02  0.127216D-01  0.122520D-02  0.595163D-01
     51 -0.187975D-01 -0.871953D-02  0.122520D-02  0.123181D-01 -0.701174D-01
     52  0.000000D+00  0.000000D+00  0.000000D+00  0.000000D+00  0.000000D+00
     53  0.209091D-05  0.221395D-05  0.000000D+00  0.000000D+00  0.135311D-03
     54  0.000000D+00  0.000000D+00  0.000000D+00  0.000000D+00  0.000000D+00
     55  0.000000D+00  0.000000D+00  0.000000D+00  0.000000D+00  0.000000D+00
     56  0.000000D+00  0.000000D+00  0.000000D+00  0.000000D+00  0.000000D+00
     57  0.000000D+00  0.000000D+00  0.000000D+00  0.000000D+00  0.000000D+00
     58  0.000000D+00  0.000000D+00  0.000000D+00  0.000000D+00  0.000000D+00
     59  0.723131D-05  0.739372D-05  0.154863D-05  0.000000D+00  0.385188D-03
     60 -0.447636D-04 -0.436949D-04 -0.962432D-05  0.396544D-05 -0.175808D-02
     61 -0.937579D-05 -0.962432D-05  0.000000D+00  0.000000D+00 -0.368232D-03
     62  0.386304D-05  0.396544D-05  0.000000D+00  0.191302D-05  0.151720D-03
     63  0.000000D+00  0.000000D+00  0.000000D+00  0.000000D+00  0.000000D+00
     64  0.000000D+00  0.000000D+00  0.000000D+00  0.000000D+00  0.420824D-04
     65  0.000000D+00  0.000000D+00  0.000000D+00  0.000000D+00  0.000000D+00
     66  0.000000D+00  0.000000D+00  0.000000D+00  0.000000D+00  0.000000D+00
     67  0.000000D+00  0.000000D+00  0.000000D+00  0.000000D+00  0.171534D-02
     68  0.676334D-02  0.350603D-02 -0.179668D-02  0.152047D-02  0.561101D-01
     69  0.000000D+00  0.000000D+00  0.000000D+00  0.000000D+00  0.000000D+00
     70  0.000000D+00  0.000000D+00  0.000000D+00  0.000000D+00  0.000000D+00
     71  0.000000D+00  0.000000D+00  0.000000D+00  0.000000D+00  0.000000D+00
     72  0.000000D+00  0.000000D+00  0.000000D+00  0.000000D+00  0.000000D+00
     73  0.000000D+00  0.000000D+00  0.000000D+00  0.000000D+00  0.000000D+00
     74  0.000000D+00  0.000000D+00  0.000000D+00  0.000000D+00  0.118168D-04
     75  0.000000D+00  0.000000D+00  0.000000D+00  0.000000D+00 -0.625289D-04
     76  0.000000D+00  0.000000D+00  0.000000D+00  0.000000D+00 -0.389829D-05
     77  0.000000D+00  0.000000D+00  0.000000D+00  0.000000D+00  0.226739D-04
     78  0.000000D+00  0.000000D+00  0.000000D+00  0.000000D+00  0.000000D+00
     79  0.000000D+00  0.000000D+00  0.000000D+00  0.000000D+00  0.000000D+00
     80  0.000000D+00  0.000000D+00  0.000000D+00  0.000000D+00  0.000000D+00
     81  0.000000D+00  0.000000D+00  0.000000D+00  0.000000D+00  0.000000D+00
     82  0.000000D+00  0.000000D+00  0.000000D+00  0.000000D+00  0.000000D+00
     83  0.000000D+00  0.000000D+00  0.000000D+00  0.000000D+00  0.000000D+00
     84  0.000000D+00  0.000000D+00  0.000000D+00  0.000000D+00  0.000000D+00
     85  0.000000D+00  0.000000D+00  0.000000D+00  0.000000D+00  0.000000D+00
     86  0.000000D+00  0.000000D+00  0.000000D+00  0.000000D+00  0.000000D+00
     87  0.000000D+00  0.000000D+00  0.000000D+00  0.000000D+00  0.000000D+00
     88  0.000000D+00  0.000000D+00  0.000000D+00  0.000000D+00  0.000000D+00
     89  0.000000D+00  0.000000D+00  0.000000D+00  0.000000D+00  0.000000D+00
     90  0.000000D+00  0.000000D+00  0.000000D+00  0.000000D+00  0.475700D-04
     91  0.000000D+00  0.000000D+00  0.000000D+00  0.000000D+00  0.000000D+00
     92  0.000000D+00  0.000000D+00  0.000000D+00  0.000000D+00  0.000000D+00
     93  0.000000D+00  0.000000D+00  0.000000D+00  0.000000D+00  0.000000D+00
     94  0.000000D+00  0.000000D+00  0.000000D+00  0.000000D+00  0.000000D+00
     95  0.000000D+00  0.000000D+00  0.000000D+00  0.000000D+00  0.000000D+00
     96  0.000000D+00  0.000000D+00  0.000000D+00  0.000000D+00  0.000000D+00
     97  0.000000D+00  0.000000D+00  0.000000D+00  0.000000D+00  0.000000D+00
     98  0.000000D+00  0.000000D+00  0.000000D+00  0.000000D+00  0.000000D+00
     99  0.000000D+00  0.000000D+00  0.000000D+00  0.000000D+00  0.000000D+00
    100  0.000000D+00  0.000000D+00  0.000000D+00  0.000000D+00  0.000000D+00
    101  0.000000D+00  0.000000D+00  0.000000D+00  0.000000D+00  0.000000D+00
    102  0.000000D+00  0.000000D+00  0.000000D+00  0.000000D+00  0.000000D+00
    103  0.000000D+00  0.000000D+00  0.000000D+00  0.000000D+00  0.148725D-04
    104  0.000000D+00  0.000000D+00  0.000000D+00  0.000000D+00  0.000000D+00
    105  0.000000D+00  0.000000D+00  0.000000D+00  0.000000D+00  0.000000D+00
    106  0.000000D+00  0.000000D+00  0.000000D+00  0.000000D+00  0.000000D+00
    107  0.000000D+00  0.000000D+00  0.000000D+00  0.000000D+00  0.000000D+00
    108  0.000000D+00  0.000000D+00  0.000000D+00  0.000000D+00  0.000000D+00
    109  0.000000D+00  0.000000D+00  0.000000D+00  0.000000D+00  0.000000D+00
    110  0.000000D+00  0.000000D+00  0.000000D+00  0.000000D+00  0.000000D+00
    111  0.000000D+00  0.000000D+00  0.000000D+00  0.000000D+00  0.000000D+00
    112  0.000000D+00  0.000000D+00  0.000000D+00  0.000000D+00  0.000000D+00
    113  0.000000D+00  0.000000D+00  0.000000D+00  0.000000D+00  0.000000D+00
    114  0.000000D+00  0.000000D+00  0.000000D+00  0.000000D+00  0.000000D+00
    115  0.000000D+00  0.000000D+00  0.000000D+00  0.000000D+00  0.000000D+00
    116  0.000000D+00  0.000000D+00  0.000000D+00  0.000000D+00  0.000000D+00
    117  0.000000D+00  0.000000D+00  0.000000D+00  0.000000D+00  0.000000D+00
    118  0.000000D+00  0.000000D+00  0.000000D+00  0.000000D+00  0.000000D+00
    119  0.000000D+00  0.000000D+00  0.000000D+00  0.000000D+00  0.000000D+00
    120  0.000000D+00  0.000000D+00  0.000000D+00  0.000000D+00  0.000000D+00
    121  0.000000D+00  0.000000D+00  0.000000D+00  0.000000D+00  0.000000D+00
    122  0.000000D+00  0.000000D+00  0.000000D+00  0.000000D+00  0.000000D+00
    123  0.000000D+00  0.000000D+00  0.000000D+00  0.000000D+00  0.000000D+00
    124  0.000000D+00  0.000000D+00  0.000000D+00  0.000000D+00  0.000000D+00
    125  0.000000D+00  0.000000D+00  0.000000D+00  0.000000D+00  0.000000D+00
    126  0.000000D+00  0.000000D+00  0.000000D+00  0.000000D+00  0.000000D+00
    127  0.000000D+00  0.000000D+00  0.000000D+00  0.000000D+00  0.000000D+00
    128  0.000000D+00  0.000000D+00  0.000000D+00  0.000000D+00  0.000000D+00
    129  0.000000D+00  0.000000D+00  0.000000D+00  0.000000D+00  0.000000D+00
    130  0.000000D+00  0.000000D+00  0.000000D+00  0.000000D+00  0.000000D+00
    131  0.000000D+00  0.000000D+00  0.000000D+00  0.000000D+00  0.000000D+00
    132  0.000000D+00  0.000000D+00  0.000000D+00  0.000000D+00  0.000000D+00
    133  0.000000D+00  0.000000D+00  0.000000D+00  0.000000D+00  0.000000D+00
               16            17            18            19            20 
     16  0.100000D+01
     17  0.000000D+00  0.100000D+01
     18  0.000000D+00  0.000000D+00  0.100000D+01
     19  0.000000D+00  0.000000D+00  0.000000D+00  0.100000D+01
     20  0.629576D+00  0.000000D+00  0.000000D+00  0.000000D+00  0.100000D+01
     21  0.000000D+00  0.629576D+00  0.000000D+00  0.000000D+00  0.000000D+00
     22  0.000000D+00  0.000000D+00  0.629576D+00  0.000000D+00  0.000000D+00
     23  0.490682D-04  0.505488D-04 -0.335479D-04  0.548739D-02  0.123301D-01
     24  0.305412D-02  0.314627D-02 -0.208810D-02  0.411180D-01  0.787597D-01
     25 -0.358699D-02 -0.454503D-02  0.301642D-02 -0.274232D-01 -0.296022D-01
     26 -0.454503D-02 -0.385726D-02  0.310744D-02 -0.282506D-01 -0.550796D-01
     27  0.301642D-02  0.310744D-02 -0.123740D-02  0.187492D-01  0.365549D-01
     28  0.394394D-01  0.406295D-01 -0.269647D-01  0.141808D+00  0.188783D+00
     29 -0.459386D-01 -0.774586D-01  0.514072D-01 -0.160897D+00 -0.741799D-01
     30 -0.774586D-01 -0.505446D-01  0.529584D-01 -0.165752D+00 -0.220659D+00
     31  0.514072D-01  0.529584D-01 -0.589586D-02  0.110005D+00  0.146446D+00
     32  0.263514D-05  0.317111D-05 -0.213959D-05  0.189129D-02  0.473614D-02
     33  0.253131D-02  0.304616D-02 -0.205528D-02  0.233297D-01  0.384355D-01
     34  0.770822D-04  0.227627D-04 -0.114714D-04  0.556298D-02  0.188326D-01
     35  0.473250D-02  0.139753D-02 -0.704291D-03  0.416003D-01  0.120050D+00
     36 -0.945432D-02 -0.304251D-02  0.153329D-02 -0.418095D-01 -0.986637D-01
     37 -0.304251D-02 -0.498407D-04  0.452787D-03 -0.123465D-01 -0.362672D-01
     38  0.153329D-02  0.452787D-03  0.620443D-03  0.622210D-02  0.182770D-01
     39  0.602348D-01  0.177876D-01 -0.896415D-02  0.142962D+00  0.286738D+00
     40 -0.143366D+00 -0.510930D-01  0.257486D-01 -0.244383D+00 -0.349002D+00
     41 -0.510930D-01  0.145643D-01  0.760367D-02 -0.721675D-01 -0.144746D+00
     42  0.257486D-01  0.760367D-02  0.258204D-01  0.363691D-01  0.729453D-01
     43  0.114447D-01 -0.160811D-02  0.189455D-02  0.320760D-01  0.759033D-01
     44  0.119298D+00 -0.167628D-01  0.197486D-01  0.184760D+00  0.371395D+00
     45 -0.166445D+00  0.280069D-01 -0.329955D-01 -0.133734D+00 -0.164357D+00
     46  0.280069D-01  0.289407D-01  0.463626D-02  0.187912D-01  0.386231D-01
     47 -0.329955D-01  0.463626D-02  0.274139D-01 -0.221384D-01 -0.455027D-01
     48  0.241723D+00 -0.339649D-01  0.400148D-01  0.403636D+00  0.565839D+00
     49 -0.317208D+00  0.684937D-01 -0.806940D-01 -0.482257D+00 -0.277519D+00
     50  0.684937D-01  0.160628D+00  0.113384D-01  0.677627D-01  0.949934D-01
     51 -0.806940D-01  0.113384D-01  0.156894D+00 -0.798327D-01 -0.111914D+00
     52  0.000000D+00  0.000000D+00  0.000000D+00  0.137091D-03  0.724063D-03
     53  0.314651D-03  0.193970D-04  0.383955D-04  0.414655D-02  0.144222D-01
     54  0.000000D+00  0.000000D+00  0.000000D+00  0.470117D-04  0.256799D-03
     55  0.000000D+00  0.000000D+00  0.000000D+00  0.701293D-03  0.328561D-02
     56 -0.135436D-05  0.000000D+00  0.000000D+00 -0.107703D-02 -0.470967D-02
     57  0.000000D+00  0.000000D+00  0.000000D+00 -0.225585D-03 -0.106718D-02
     58  0.000000D+00  0.000000D+00  0.000000D+00  0.929461D-04  0.439702D-03
     59  0.853728D-03  0.178814D-03 -0.736756D-04  0.844980D-02  0.273523D-01
     60 -0.367219D-02 -0.823688D-03  0.339378D-03 -0.233120D-01 -0.671187D-01
     61 -0.823688D-03  0.878819D-04  0.710832D-04 -0.488273D-02 -0.158056D-01
     62  0.339378D-03  0.710832D-04  0.231116D-03  0.201179D-02  0.651225D-02
     63  0.000000D+00  0.000000D+00  0.000000D+00  0.460823D-04  0.237241D-03
     64  0.946775D-04 -0.173196D-04 -0.400118D-04  0.202225D-02  0.685815D-02
     65  0.000000D+00  0.000000D+00  0.000000D+00  0.000000D+00  0.000000D+00
     66  0.000000D+00  0.000000D+00  0.000000D+00  0.515456D-05  0.267787D-04
     67  0.413346D-02 -0.211821D-02  0.179257D-02  0.396888D-01  0.994463D-01
     68  0.680231D-01 -0.348587D-01  0.294998D-01  0.172551D+00  0.283972D+00
     69  0.000000D+00  0.000000D+00  0.000000D+00  0.135433D-05  0.854758D-05
     70  0.000000D+00  0.000000D+00  0.000000D+00  0.333255D-04  0.180872D-03
     71  0.000000D+00  0.000000D+00  0.000000D+00 -0.577418D-04 -0.297470D-03
     72  0.000000D+00  0.000000D+00  0.000000D+00 -0.359984D-05 -0.196603D-04
     73  0.000000D+00  0.000000D+00  0.000000D+00  0.209380D-04  0.114351D-03
     74  0.296077D-04  0.184586D-05 -0.107362D-04  0.103250D-02  0.386222D-02
     75 -0.149494D-03 -0.980725D-05  0.570424D-04 -0.329172D-02 -0.112937D-01
     76 -0.980725D-05  0.720365D-05  0.355625D-05 -0.205218D-03 -0.767651D-03
     77  0.570424D-04  0.355625D-05 -0.128693D-04  0.119362D-02  0.446493D-02
     78  0.000000D+00  0.000000D+00  0.000000D+00  0.000000D+00  0.000000D+00
     79  0.000000D+00  0.000000D+00  0.000000D+00  0.000000D+00  0.000000D+00
     80  0.000000D+00  0.000000D+00  0.000000D+00  0.000000D+00  0.000000D+00
     81  0.000000D+00  0.000000D+00  0.000000D+00  0.000000D+00  0.000000D+00
     82  0.000000D+00  0.000000D+00  0.000000D+00  0.000000D+00  0.000000D+00
     83  0.000000D+00  0.000000D+00  0.000000D+00  0.866089D-05  0.433355D-04
     84  0.000000D+00  0.000000D+00  0.000000D+00 -0.369343D-04 -0.176253D-03
     85  0.000000D+00  0.000000D+00  0.000000D+00 -0.241359D-05 -0.120766D-04
     86  0.000000D+00  0.000000D+00  0.000000D+00  0.996156D-05  0.498436D-04
     87  0.000000D+00  0.000000D+00  0.000000D+00  0.000000D+00  0.000000D+00
     88  0.000000D+00  0.000000D+00  0.000000D+00  0.000000D+00  0.000000D+00
     89  0.000000D+00  0.000000D+00  0.000000D+00  0.516647D-04  0.265714D-03
     90  0.106990D-03  0.475945D-04 -0.467627D-05  0.218046D-02  0.738703D-02
     91  0.000000D+00  0.000000D+00  0.000000D+00  0.000000D+00  0.000000D+00
     92  0.000000D+00  0.000000D+00  0.000000D+00  0.000000D+00  0.202995D-05
     93  0.000000D+00  0.000000D+00  0.000000D+00  0.000000D+00  0.000000D+00
     94  0.000000D+00  0.000000D+00  0.000000D+00  0.000000D+00  0.000000D+00
     95  0.000000D+00  0.000000D+00  0.000000D+00  0.000000D+00  0.000000D+00
     96  0.000000D+00  0.000000D+00  0.000000D+00  0.000000D+00  0.000000D+00
     97  0.000000D+00  0.000000D+00  0.000000D+00  0.000000D+00  0.000000D+00
     98  0.000000D+00  0.000000D+00  0.000000D+00  0.000000D+00  0.000000D+00
     99  0.000000D+00  0.000000D+00  0.000000D+00  0.000000D+00 -0.400704D-05
    100  0.000000D+00  0.000000D+00  0.000000D+00  0.000000D+00  0.000000D+00
    101  0.000000D+00  0.000000D+00  0.000000D+00  0.000000D+00  0.183529D-05
    102  0.000000D+00  0.000000D+00  0.000000D+00  0.174735D-04  0.874890D-04
    103  0.323742D-04  0.656785D-05 -0.197407D-04  0.106751D-02  0.352178D-02
    104  0.000000D+00  0.000000D+00  0.000000D+00  0.000000D+00  0.000000D+00
    105  0.000000D+00  0.000000D+00  0.000000D+00  0.272556D-05  0.139072D-04
    106  0.000000D+00  0.000000D+00  0.000000D+00  0.000000D+00  0.000000D+00
    107  0.000000D+00  0.000000D+00  0.000000D+00  0.000000D+00  0.000000D+00
    108  0.000000D+00  0.000000D+00  0.000000D+00  0.000000D+00  0.000000D+00
    109  0.000000D+00  0.000000D+00  0.000000D+00  0.000000D+00  0.000000D+00
    110  0.000000D+00  0.000000D+00  0.000000D+00  0.000000D+00  0.000000D+00
    111  0.000000D+00  0.000000D+00  0.000000D+00  0.000000D+00  0.000000D+00
    112  0.000000D+00  0.000000D+00  0.000000D+00  0.000000D+00  0.000000D+00
    113  0.000000D+00  0.000000D+00  0.000000D+00  0.000000D+00  0.000000D+00
    114  0.000000D+00  0.000000D+00  0.000000D+00  0.000000D+00  0.000000D+00
    115  0.000000D+00  0.000000D+00  0.000000D+00  0.000000D+00  0.000000D+00
    116  0.000000D+00  0.000000D+00  0.000000D+00  0.000000D+00  0.000000D+00
    117  0.000000D+00  0.000000D+00  0.000000D+00  0.000000D+00  0.000000D+00
    118  0.000000D+00  0.000000D+00  0.000000D+00  0.000000D+00  0.000000D+00
    119  0.000000D+00  0.000000D+00  0.000000D+00  0.000000D+00  0.000000D+00
    120  0.000000D+00  0.000000D+00  0.000000D+00  0.000000D+00  0.000000D+00
    121  0.000000D+00  0.000000D+00  0.000000D+00  0.000000D+00  0.000000D+00
    122  0.000000D+00  0.000000D+00  0.000000D+00  0.000000D+00  0.000000D+00
    123  0.000000D+00  0.000000D+00  0.000000D+00  0.000000D+00  0.000000D+00
    124  0.000000D+00  0.000000D+00  0.000000D+00  0.000000D+00  0.000000D+00
    125  0.000000D+00  0.000000D+00  0.000000D+00  0.000000D+00  0.000000D+00
    126  0.000000D+00  0.000000D+00  0.000000D+00  0.000000D+00  0.000000D+00
    127  0.000000D+00  0.000000D+00  0.000000D+00  0.000000D+00  0.000000D+00
    128  0.000000D+00  0.000000D+00  0.000000D+00  0.000000D+00  0.000000D+00
    129  0.000000D+00  0.000000D+00  0.000000D+00  0.000000D+00  0.105502D-05
    130  0.000000D+00  0.000000D+00  0.000000D+00  0.000000D+00  0.000000D+00
    131  0.000000D+00  0.000000D+00  0.000000D+00  0.000000D+00  0.000000D+00
    132  0.000000D+00  0.000000D+00  0.000000D+00  0.000000D+00  0.000000D+00
    133  0.000000D+00  0.000000D+00  0.000000D+00  0.000000D+00  0.000000D+00
               21            22            23            24            25 
     21  0.100000D+01
     22  0.000000D+00  0.100000D+01
     23  0.127022D-01 -0.843010D-02  0.100000D+01
     24  0.811362D-01 -0.538480D-01  0.191447D+00  0.100000D+01
     25 -0.550796D-01  0.365549D-01  0.000000D+00  0.000000D+00  0.100000D+01
     26 -0.328775D-01  0.376579D-01  0.000000D+00  0.000000D+00  0.000000D+00
     27  0.376579D-01 -0.112842D-02  0.000000D+00  0.000000D+00  0.000000D+00
     28  0.194480D+00 -0.129071D+00  0.180314D+00  0.761357D+00  0.000000D+00
     29 -0.220659D+00  0.146446D+00  0.000000D+00  0.000000D+00  0.528959D+00
     30 -0.873014D-01  0.150864D+00  0.000000D+00  0.000000D+00  0.000000D+00
     31  0.150864D+00  0.398911D-01  0.000000D+00  0.000000D+00  0.000000D+00
     32  0.569944D-02 -0.384548D-02  0.198710D-01  0.199594D+00  0.122112D+00
     33  0.462530D-01 -0.312074D-01  0.817816D-01  0.405151D+00  0.959717D-01
     34  0.556137D-02 -0.280268D-02  0.000000D+00  0.310543D-02  0.528538D-02
     35  0.354512D-01 -0.178658D-01  0.310543D-02  0.762384D-01  0.756152D-01
     36 -0.362672D-01  0.182770D-01 -0.528538D-02 -0.756152D-01 -0.375768D-01
     37  0.134392D-01  0.539729D-02  0.610589D-02  0.873539D-01  0.925542D-01
     38  0.539729D-02  0.214291D-01 -0.479368D-02 -0.685807D-01 -0.726634D-01
     39  0.846752D-01 -0.426724D-01  0.432143D-01  0.242362D+00  0.110355D+00
     40 -0.144746D+00  0.729453D-01 -0.572471D-01 -0.258095D+00  0.402949D-01
     41  0.984111D-01  0.215411D-01  0.661342D-01  0.298162D+00  0.140088D+00
     42  0.215411D-01  0.130300D+00 -0.519213D-01 -0.234084D+00 -0.109982D+00
     43 -0.106653D-01  0.125650D-01  0.000000D+00  0.000000D+00  0.000000D+00
     44 -0.521853D-01  0.614806D-01  0.000000D+00  0.732969D-03  0.736886D-04
     45  0.386231D-01 -0.455027D-01  0.000000D+00 -0.736886D-04  0.361628D-03
     46  0.105091D+00  0.639366D-02  0.295344D-05  0.163711D-02  0.165114D-03
     47  0.639366D-02  0.102985D+00 -0.215094D-05 -0.119228D-02 -0.120250D-03
     48 -0.795069D-01  0.936688D-01  0.424337D-02  0.372276D-01  0.168896D-02
     49  0.949934D-01 -0.111914D+00 -0.588276D-03 -0.418094D-02  0.234282D-01
     50  0.385187D+00  0.157252D-01  0.130695D-01  0.928864D-01  0.430482D-02
     51  0.157252D-01  0.380009D+00 -0.951831D-02 -0.676476D-01 -0.313513D-02
     52  0.446357D-04  0.883544D-04  0.000000D+00  0.000000D+00  0.000000D+00
     53  0.889075D-03  0.175988D-02  0.831044D-04  0.142313D-02  0.185799D-02
     54  0.537870D-04 -0.221615D-04  0.000000D+00  0.000000D+00  0.000000D+00
     55  0.688175D-03 -0.283544D-03  0.000000D+00  0.164587D-03  0.446272D-03
     56 -0.106718D-02  0.439702D-03  0.000000D+00 -0.446272D-03 -0.112890D-02
     57  0.161929D-03  0.920962D-04  0.000000D+00  0.162378D-03  0.440816D-03
     58  0.920962D-04  0.347506D-03  0.000000D+00 -0.147720D-03 -0.401022D-03
     59  0.572897D-02 -0.236047D-02  0.203057D-02  0.204792D-01  0.247801D-01
     60 -0.158056D-01  0.651225D-02 -0.759892D-02 -0.621994D-01 -0.638570D-01
     61  0.503251D-02  0.136400D-02  0.276490D-02  0.226316D-01  0.279059D-01
     62  0.136400D-02  0.778100D-02 -0.251531D-02 -0.205885D-01 -0.253868D-01
     63 -0.433990D-04 -0.100261D-03  0.000000D+00  0.000000D+00  0.000000D+00
     64 -0.125458D-02 -0.289833D-02  0.384833D-04  0.753535D-03  0.938398D-03
     65  0.000000D+00  0.000000D+00  0.000000D+00  0.000000D+00  0.000000D+00
     66  0.000000D+00 -0.318137D-05  0.000000D+00  0.000000D+00  0.115431D-05
     67 -0.509616D-01  0.431272D-01  0.000000D+00  0.000000D+00  0.000000D+00
     68 -0.145523D+00  0.123151D+00  0.114244D-03  0.185060D-02  0.390604D-03
     69  0.000000D+00 -0.309947D-05  0.000000D+00  0.000000D+00  0.000000D+00
     70  0.112763D-04 -0.655867D-04  0.000000D+00  0.000000D+00  0.203020D-05
     71 -0.196603D-04  0.114351D-03  0.000000D+00 -0.203020D-05 -0.665903D-05
     72  0.166570D-04  0.712909D-05  0.000000D+00  0.000000D+00  0.328605D-05
     73  0.712909D-05 -0.235827D-04  0.000000D+00  0.000000D+00  0.128828D-05
     74  0.240786D-03 -0.140049D-02  0.126843D-03  0.214360D-02  0.316792D-02
     75 -0.767651D-03  0.446493D-02 -0.599976D-03 -0.827168D-02 -0.110741D-01
     76  0.971590D-03  0.278361D-03  0.283434D-03  0.390761D-02  0.584476D-02
     77  0.278361D-03 -0.599599D-03  0.111119D-03  0.153196D-02  0.229141D-02
     78  0.000000D+00  0.000000D+00  0.000000D+00  0.000000D+00  0.000000D+00
     79  0.000000D+00  0.000000D+00  0.000000D+00  0.000000D+00  0.000000D+00
     80  0.000000D+00  0.000000D+00  0.000000D+00  0.000000D+00  0.000000D+00
     81  0.000000D+00  0.000000D+00  0.000000D+00  0.000000D+00  0.000000D+00
     82  0.000000D+00  0.000000D+00  0.000000D+00  0.000000D+00  0.000000D+00
     83  0.283190D-05 -0.116880D-04  0.000000D+00  0.490599D-05  0.105861D-04
     84 -0.120766D-04  0.498436D-04  0.000000D+00 -0.290241D-04 -0.600131D-04
     85  0.776224D-05  0.325719D-05  0.000000D+00  0.825479D-05  0.178779D-04
     86  0.325719D-05 -0.489190D-05  0.000000D+00  0.347230D-05  0.752018D-05
     87  0.000000D+00  0.000000D+00  0.000000D+00  0.000000D+00  0.000000D+00
     88  0.000000D+00  0.000000D+00  0.000000D+00  0.000000D+00  0.000000D+00
     89  0.118202D-03 -0.116136D-04  0.000000D+00  0.192129D-04  0.608853D-04
     90  0.328611D-02 -0.322868D-03  0.128791D-02  0.136083D-01  0.175753D-01
     91  0.000000D+00  0.000000D+00  0.000000D+00  0.000000D+00  0.000000D+00
     92  0.000000D+00  0.000000D+00  0.000000D+00  0.000000D+00  0.000000D+00
     93  0.000000D+00  0.000000D+00  0.000000D+00  0.000000D+00  0.000000D+00
     94  0.000000D+00  0.000000D+00  0.000000D+00  0.000000D+00  0.000000D+00
     95  0.000000D+00  0.000000D+00  0.000000D+00  0.000000D+00  0.000000D+00
     96  0.000000D+00  0.000000D+00  0.000000D+00  0.000000D+00  0.000000D+00
     97  0.000000D+00  0.000000D+00  0.000000D+00  0.000000D+00  0.000000D+00
     98  0.000000D+00  0.000000D+00  0.000000D+00  0.000000D+00  0.000000D+00
     99  0.000000D+00  0.183529D-05  0.000000D+00  0.000000D+00  0.000000D+00
    100  0.000000D+00  0.000000D+00  0.000000D+00  0.000000D+00  0.000000D+00
    101  0.000000D+00  0.000000D+00  0.000000D+00  0.000000D+00  0.000000D+00
    102  0.177492D-04 -0.533479D-04  0.000000D+00  0.347443D-05  0.105421D-04
    103  0.714474D-03 -0.214747D-02  0.599933D-03  0.725975D-02  0.888832D-02
    104  0.000000D+00  0.000000D+00  0.000000D+00  0.000000D+00  0.000000D+00
    105  0.317536D-05 -0.325709D-05  0.000000D+00  0.508658D-05  0.111343D-04
    106  0.000000D+00  0.000000D+00  0.000000D+00  0.000000D+00  0.000000D+00
    107  0.000000D+00  0.000000D+00  0.000000D+00  0.000000D+00  0.000000D+00
    108  0.000000D+00  0.000000D+00  0.000000D+00  0.000000D+00  0.000000D+00
    109  0.000000D+00  0.000000D+00  0.000000D+00  0.000000D+00  0.000000D+00
    110  0.000000D+00  0.000000D+00  0.000000D+00  0.000000D+00  0.000000D+00
    111  0.000000D+00  0.000000D+00  0.000000D+00  0.000000D+00  0.000000D+00
    112  0.000000D+00  0.000000D+00  0.000000D+00  0.000000D+00  0.000000D+00
    113  0.000000D+00  0.000000D+00  0.000000D+00  0.000000D+00  0.000000D+00
    114  0.000000D+00  0.000000D+00  0.000000D+00  0.000000D+00  0.000000D+00
    115  0.000000D+00  0.000000D+00  0.000000D+00  0.000000D+00  0.000000D+00
    116  0.000000D+00  0.000000D+00  0.000000D+00  0.000000D+00  0.000000D+00
    117  0.000000D+00  0.000000D+00  0.000000D+00  0.000000D+00  0.000000D+00
    118  0.000000D+00  0.000000D+00  0.000000D+00  0.000000D+00  0.000000D+00
    119  0.000000D+00  0.000000D+00  0.000000D+00  0.000000D+00  0.000000D+00
    120  0.000000D+00  0.000000D+00  0.000000D+00  0.000000D+00  0.000000D+00
    121  0.000000D+00  0.000000D+00  0.000000D+00  0.000000D+00  0.000000D+00
    122  0.000000D+00  0.000000D+00  0.000000D+00  0.000000D+00  0.000000D+00
    123  0.000000D+00  0.000000D+00  0.000000D+00  0.000000D+00  0.000000D+00
    124  0.000000D+00  0.000000D+00  0.000000D+00  0.000000D+00  0.000000D+00
    125  0.000000D+00  0.000000D+00  0.000000D+00  0.000000D+00  0.000000D+00
    126  0.000000D+00  0.000000D+00  0.000000D+00  0.000000D+00  0.000000D+00
    127  0.000000D+00  0.000000D+00  0.000000D+00  0.000000D+00  0.000000D+00
    128  0.000000D+00  0.000000D+00  0.000000D+00  0.000000D+00  0.000000D+00
    129  0.000000D+00  0.000000D+00  0.000000D+00  0.000000D+00  0.000000D+00
    130  0.000000D+00  0.000000D+00  0.000000D+00  0.000000D+00  0.000000D+00
    131  0.000000D+00  0.000000D+00  0.000000D+00  0.000000D+00  0.000000D+00
    132  0.000000D+00  0.000000D+00  0.000000D+00  0.000000D+00  0.000000D+00
    133  0.000000D+00  0.000000D+00  0.000000D+00  0.000000D+00  0.000000D+00
               26            27            28            29            30 
     26  0.100000D+01
     27  0.000000D+00  0.100000D+01
     28  0.000000D+00  0.000000D+00  0.100000D+01
     29  0.000000D+00  0.000000D+00  0.000000D+00  0.100000D+01
     30  0.528959D+00  0.000000D+00  0.000000D+00  0.000000D+00  0.100000D+01
     31  0.000000D+00  0.528959D+00  0.000000D+00  0.000000D+00  0.000000D+00
     32  0.224275D+00 -0.156397D+00  0.342254D+00  0.205825D+00  0.378025D+00
     33  0.176265D+00 -0.122917D+00  0.672887D+00  0.239881D+00  0.440574D+00
     34 -0.610589D-02  0.479368D-02  0.432143D-01  0.572471D-01 -0.661342D-01
     35 -0.873539D-01  0.685807D-01  0.242362D+00  0.258095D+00 -0.298162D+00
     36  0.925542D-01 -0.726634D-01 -0.110355D+00  0.402949D-01  0.140088D+00
     37 -0.643825D-01  0.839438D-01  0.127487D+00  0.140088D+00 -0.277879D-03
     38  0.839438D-01 -0.233635D-01 -0.100089D+00 -0.109982D+00  0.127056D+00
     39 -0.127487D+00  0.100089D+00  0.478766D+00  0.327030D+00 -0.377799D+00
     40  0.140088D+00 -0.109982D+00 -0.327030D+00  0.255382D+00  0.258063D+00
     41 -0.277879D-03  0.127056D+00  0.377799D+00  0.258063D+00  0.180641D+00
     42  0.127056D+00  0.618077D-01 -0.296606D+00 -0.202603D+00  0.234055D+00
     43 -0.295344D-05  0.215094D-05  0.424337D-02  0.588276D-03 -0.130695D-01
     44 -0.163711D-02  0.119228D-02  0.372276D-01  0.418094D-02 -0.928864D-01
     45  0.165114D-03 -0.120250D-03 -0.168896D-02  0.234282D-01  0.430482D-02
     46 -0.329922D-02  0.267155D-02  0.375230D-01  0.430482D-02 -0.720166D-01
     47  0.267155D-02 -0.157658D-02 -0.273274D-01 -0.313513D-02  0.696519D-01
     48 -0.375230D-01  0.273274D-01  0.144662D+00  0.103433D-01 -0.229792D+00
     49  0.430482D-02 -0.313513D-02 -0.103433D-01  0.143922D+00  0.164301D-01
     50 -0.720166D-01  0.696519D-01  0.229792D+00  0.164301D-01 -0.220359D+00
     51  0.696519D-01 -0.271044D-01 -0.167354D+00 -0.119657D-01  0.265838D+00
     52  0.000000D+00  0.000000D+00  0.721530D-03  0.266240D-02 -0.136288D-02
     53 -0.951103D-03  0.111324D-02  0.172123D-01  0.378800D-01 -0.193907D-01
     54  0.000000D+00  0.000000D+00  0.203057D-02  0.759892D-02 -0.276490D-02
     55 -0.162378D-03  0.147720D-03  0.204792D-01  0.621994D-01 -0.226316D-01
     56  0.440816D-03 -0.401022D-03 -0.247801D-01 -0.638570D-01  0.279059D-01
     57 -0.777753D-04  0.145914D-03  0.901635D-02  0.279059D-01  0.268456D-02
     58  0.145914D-03 -0.501239D-04 -0.820241D-02 -0.253868D-01  0.923710D-02
     59 -0.901635D-02  0.820241D-02  0.989150D-01  0.190923D+00 -0.694682D-01
     60  0.279059D-01 -0.253868D-01 -0.190923D+00 -0.269599D+00  0.134086D+00
     61  0.268456D-02  0.923710D-02  0.694682D-01  0.134086D+00  0.501273D-01
     62  0.923710D-02  0.443503D-02 -0.631971D-01 -0.121981D+00  0.443835D-01
     63  0.000000D+00  0.000000D+00  0.363092D-03  0.128611D-02 -0.119742D-02
     64 -0.873680D-03 -0.245487D-03  0.114270D-01  0.241489D-01 -0.224834D-01
     65  0.000000D+00  0.000000D+00  0.000000D+00  0.000000D+00  0.000000D+00
     66  0.000000D+00  0.000000D+00  0.106620D-03  0.419073D-03 -0.156628D-03
     67  0.000000D+00  0.000000D+00  0.958431D-03  0.570121D-03 -0.352336D-02
     68 -0.241394D-02  0.177290D-02  0.203880D-01  0.723214D-02 -0.446948D-01
     69  0.000000D+00  0.000000D+00  0.126843D-03  0.599976D-03 -0.283434D-03
     70  0.000000D+00  0.000000D+00  0.214360D-02  0.827168D-02 -0.390761D-02
     71  0.328605D-05  0.128828D-05 -0.316792D-02 -0.110741D-01  0.584476D-02
     72 -0.125544D-05  0.000000D+00  0.149655D-02  0.584476D-02 -0.146291D-02
     73  0.000000D+00  0.000000D+00  0.586717D-03  0.229141D-02 -0.108248D-02
     74 -0.149655D-02 -0.586717D-03  0.236598D-01  0.577356D-01 -0.272748D-01
     75  0.584476D-02  0.229141D-02 -0.577356D-01 -0.117229D+00  0.665570D-01
     76 -0.146291D-02 -0.108248D-02  0.272748D-01  0.665570D-01 -0.778230D-02
     77 -0.108248D-02  0.873818D-03  0.106930D-01  0.260934D-01 -0.123267D-01
     78  0.000000D+00  0.000000D+00  0.000000D+00  0.000000D+00  0.000000D+00
     79  0.000000D+00  0.000000D+00  0.490599D-05  0.290241D-04 -0.825479D-05
     80  0.000000D+00  0.000000D+00 -0.105861D-04 -0.600131D-04  0.178779D-04
     81  0.000000D+00  0.000000D+00  0.301081D-05  0.178779D-04 -0.223844D-05
     82  0.000000D+00  0.000000D+00  0.126647D-05  0.752018D-05 -0.213882D-05
     83 -0.301081D-05 -0.126647D-05  0.513005D-03  0.190804D-02 -0.542667D-03
     84  0.178779D-04  0.752018D-05 -0.190804D-02 -0.658363D-02  0.201836D-02
     85 -0.223844D-05 -0.213882D-05  0.542667D-03  0.201836D-02 -0.610402D-04
     86 -0.213882D-05  0.194656D-05  0.228268D-03  0.849006D-03 -0.241467D-03
     87  0.000000D+00  0.000000D+00  0.000000D+00  0.000000D+00  0.000000D+00
     88  0.000000D+00  0.000000D+00  0.000000D+00  0.000000D+00  0.000000D+00
     89  0.507078D-05  0.214088D-04  0.833323D-02  0.295269D-01  0.245912D-02
     90  0.146375D-02  0.617994D-02  0.739752D-01  0.156072D+00  0.129983D-01
     91  0.000000D+00  0.000000D+00  0.000000D+00  0.000000D+00  0.000000D+00
     92  0.000000D+00  0.000000D+00  0.797756D-05  0.306699D-04 -0.184472D-04
     93  0.000000D+00  0.000000D+00  0.000000D+00  0.000000D+00  0.000000D+00
     94  0.000000D+00  0.000000D+00  0.000000D+00  0.000000D+00  0.000000D+00
     95  0.000000D+00  0.000000D+00  0.000000D+00  0.000000D+00  0.000000D+00
     96  0.000000D+00  0.000000D+00  0.000000D+00  0.000000D+00  0.000000D+00
     97  0.000000D+00  0.000000D+00  0.000000D+00  0.000000D+00  0.000000D+00
     98  0.000000D+00  0.000000D+00  0.130407D-04  0.551182D-04 -0.196800D-04
     99  0.000000D+00  0.000000D+00 -0.551182D-04 -0.219924D-03  0.831800D-04
    100  0.000000D+00  0.000000D+00  0.196800D-04  0.831800D-04 -0.166587D-04
    101  0.000000D+00  0.000000D+00  0.200038D-04  0.845488D-04 -0.301881D-04
    102 -0.348714D-05 -0.592547D-05  0.421179D-02  0.142833D-01 -0.472466D-02
    103 -0.294010D-02 -0.499592D-02  0.492701D-01  0.995434D-01 -0.329272D-01
    104  0.000000D+00  0.000000D+00  0.167814D-05  0.107759D-04  0.000000D+00
    105  0.000000D+00  0.000000D+00  0.460692D-03  0.176777D-02 -0.778002D-04
    106  0.000000D+00  0.000000D+00  0.000000D+00  0.000000D+00  0.000000D+00
    107  0.000000D+00  0.000000D+00  0.000000D+00  0.000000D+00  0.000000D+00
    108  0.000000D+00  0.000000D+00  0.000000D+00  0.000000D+00  0.000000D+00
    109  0.000000D+00  0.000000D+00  0.000000D+00  0.000000D+00  0.000000D+00
    110  0.000000D+00  0.000000D+00  0.000000D+00  0.000000D+00  0.000000D+00
    111  0.000000D+00  0.000000D+00  0.000000D+00  0.000000D+00  0.000000D+00
    112  0.000000D+00  0.000000D+00  0.000000D+00  0.000000D+00  0.000000D+00
    113  0.000000D+00  0.000000D+00  0.000000D+00  0.000000D+00  0.000000D+00
    114  0.000000D+00  0.000000D+00  0.000000D+00  0.000000D+00  0.000000D+00
    115  0.000000D+00  0.000000D+00  0.000000D+00  0.000000D+00  0.000000D+00
    116  0.000000D+00  0.000000D+00  0.000000D+00  0.000000D+00  0.000000D+00
    117  0.000000D+00  0.000000D+00  0.000000D+00  0.000000D+00  0.000000D+00
    118  0.000000D+00  0.000000D+00  0.000000D+00  0.000000D+00  0.000000D+00
    119  0.000000D+00  0.000000D+00  0.000000D+00  0.000000D+00  0.000000D+00
    120  0.000000D+00  0.000000D+00  0.000000D+00  0.000000D+00  0.000000D+00
    121  0.000000D+00  0.000000D+00  0.000000D+00  0.000000D+00  0.000000D+00
    122  0.000000D+00  0.000000D+00  0.000000D+00  0.000000D+00  0.000000D+00
    123  0.000000D+00  0.000000D+00  0.000000D+00  0.000000D+00  0.000000D+00
    124  0.000000D+00  0.000000D+00  0.000000D+00  0.000000D+00  0.000000D+00
    125  0.000000D+00  0.000000D+00  0.000000D+00  0.000000D+00  0.000000D+00
    126  0.000000D+00  0.000000D+00  0.000000D+00  0.000000D+00  0.000000D+00
    127  0.000000D+00  0.000000D+00  0.000000D+00  0.000000D+00  0.000000D+00
    128  0.000000D+00  0.000000D+00  0.000000D+00  0.000000D+00  0.000000D+00
    129  0.000000D+00  0.000000D+00  0.344427D-04  0.129196D-03 -0.349067D-04
    130  0.000000D+00  0.000000D+00  0.000000D+00  0.000000D+00  0.000000D+00
    131  0.000000D+00  0.000000D+00  0.000000D+00  0.000000D+00  0.000000D+00
    132  0.000000D+00  0.000000D+00  0.000000D+00  0.000000D+00  0.000000D+00
    133  0.000000D+00  0.000000D+00  0.000000D+00  0.000000D+00  0.000000D+00
               31            32            33            34            35 
     31  0.100000D+01
     32 -0.263613D+00  0.100000D+01
     33 -0.307232D+00  0.645898D+00  0.100000D+01
     34  0.519213D-01  0.121998D-05  0.753803D-02  0.100000D+01
     35  0.234084D+00  0.100191D-02  0.579773D-01  0.191447D+00  0.100000D+01
     36 -0.109982D+00 -0.458584D-03 -0.110924D-01  0.000000D+00  0.000000D+00
     37  0.127056D+00  0.214006D-02  0.517645D-01  0.000000D+00  0.000000D+00
     38  0.618077D-01 -0.159340D-02 -0.385418D-01  0.000000D+00  0.000000D+00
[...]
  34         O                -0.392328          1.165874
  35         O                -0.381759          1.446805
  36         O                -0.370749          1.232369
  37         O                -0.355114          1.268456
  38         O                -0.350930          1.178089
  39         O                -0.338900          1.763701
  40         O                -0.333387          1.179561
  41         O                -0.327177          1.089209
  42         O                -0.320080          1.012133
  43         O                -0.310452          1.543146
  44         O                -0.252355          1.523502
  45         O                -0.233607          1.294759
  46         V                -0.126495          1.476821
  47         V                -0.000099          1.591952
  48         V                 0.055610          1.817531
  49         V                 0.070102          1.497001
  50         V                 0.110163          1.143698
  51         V                 0.115163          1.450953
  52         V                 0.126655          1.046166
  53         V                 0.132392          1.320511
  54         V                 0.140601          1.134453
  55         V                 0.147283          1.074129
  56         V                 0.160487          1.194929
  57         V                 0.166465          1.178456
  58         V                 0.183056          1.102485
  59         V                 0.198311          1.184070
  60         V                 0.198808          1.167339
  61         V                 0.200302          1.372438
  62         V                 0.207155          1.269070
  63         V                 0.217671          1.030020
  64         V                 0.221371          1.095006
  65         V                 0.222561          1.134801
  66         V                 0.245938          1.962262
  67         V                 0.249962          1.425761
  68         V                 0.253963          1.288977
  69         V                 0.285547          1.822838
  70         V                 0.321270          2.157760
  71         V                 0.323699          2.079653
  72         V                 0.351387          2.008496
  73         V                 0.381732          1.944311
  74         V                 0.461195          2.210991
  75         V                 0.473586          2.341330
  76         V                 0.520841          3.261683
  77         V                 0.521174          3.022877
  78         V                 0.556460          3.058921
  79         V                 0.651542          2.114115
  80         V                 0.666431          2.399129
  81         V                 0.683666          1.867338
  82         V                 0.691140          2.445251
  83         V                 0.700515          2.462207
  84         V                 0.715716          2.596637
  85         V                 0.718205          2.081218
  86         V                 0.739057          2.450701
  87         V                 0.752772          2.512464
  88         V                 0.756152          2.545397
  89         V                 0.769741          2.646705
  90         V                 0.780502          2.748216
  91         V                 0.784756          2.693000
  92         V                 0.806542          2.664607
  93         V                 0.811864          2.527685
  94         V                 0.823698          2.596440
  95         V                 0.834273          2.792918
  96         V                 0.849063          2.653192
  97         V                 0.883722          2.557194
  98         V                 0.898403          2.740551
  99         V                 0.927985          2.805440
 100         V                 0.935464          2.753423
 101         V                 0.948811          3.025864
 102         V                 0.957735          2.656705
 103         V                 0.966231          2.932882
 104         V                 1.000245          2.904315
 105         V                 1.035624          2.947268
 106         V                 1.040732          2.999368
 107         V                 1.052367          2.857118
 108         V                 1.070066          2.943136
 109         V                 1.076639          2.838381
 110         V                 1.083780          2.988942
 111         V                 1.092013          2.916861
 112         V                 1.112554          2.880533
 113         V                 1.116784          3.022682
 114         V                 1.126909          3.012809
 115         V                 1.139694          2.766428
 116         V                 1.147130          2.510841
 117         V                 1.152803          2.789936
 118         V                 1.180415          2.896711
 119         V                 1.284633          2.827623
 120         V                 1.305298          2.603676
 121         V                 1.369346          2.964407
 122         V                 1.394701          2.805796
 123         V                 1.537186          3.262418
 124         V                 1.576478          2.953962
 125         V                 1.589244          3.071010
 126         V                 1.699628          3.351490
 127         V                 1.851574          3.361731
 128         V                 1.870608          3.443268
 129         V                 1.958043          3.368359
 130         V                 2.023648          3.408926
 131         V                 2.073427          3.422776
 132         V                 2.247189          3.494599
 133         V                 2.522732          3.719956
 Total kinetic energy from orbitals= 7.796330143558D+02
                          Isotropic Fermi Contact Couplings
        Atom                 a.u.       MegaHertz       Gauss      10(-4) cm-1
     1  C(13)              0.48062     540.30723     192.79505     180.22709
     2  S(33)              0.10460      35.92786      12.81996      11.98425
     3  C(13)              0.00288       3.23416       1.15403       1.07880
     4  H(1)               0.00631      28.19913      10.06215       9.40622
     5  C(13)              0.04090      45.97381      16.40460      15.33521
     6  C(13)              0.01060      11.91995       4.25334       3.97607
     7  H(1)               0.00174       7.75813       2.76830       2.58784
     8  C(13)              0.00050       0.56696       0.20231       0.18912
     9  H(1)              -0.00004      -0.16816      -0.06000      -0.05609
    10  H(1)               0.00000      -0.01573      -0.00561      -0.00525
    11  H(1)               0.00255      11.40690       4.07027       3.80493
    12  C(13)              0.00089       1.00325       0.35798       0.33465
    13  C(13)              0.00022       0.24739       0.08828       0.08252
    14  H(1)               0.00000      -0.00075      -0.00027      -0.00025
    15  H(1)               0.00047       2.10450       0.75094       0.70198
    16  H(1)               0.00000       0.00595       0.00212       0.00198
    17  C(13)              0.00003       0.03213       0.01147       0.01072
    18  H(1)               0.00000      -0.00790      -0.00282      -0.00264
    19  H(1)              -0.00001      -0.03152      -0.01125      -0.01052
    20  C(13)              0.00002       0.02659       0.00949       0.00887
    21  H(1)               0.00000      -0.00071      -0.00025      -0.00024
    22  H(1)               0.00000      -0.00193      -0.00069      -0.00064
    23  C(13)              0.00001       0.00893       0.00318       0.00298
    24  H(1)               0.00000       0.01050       0.00375       0.00350
    25  H(1)               0.00000       0.00652       0.00233       0.00218
    26  H(1)               0.00000      -0.00045      -0.00016      -0.00015
 --------------------------------------------------------
       Center         ----  Spin Dipole Couplings  ----
                      3XX-RR        3YY-RR        3ZZ-RR
 --------------------------------------------------------
     1   Atom        0.273119     -0.113854     -0.159265
     2   Atom       -0.096278      0.099126     -0.002848
     3   Atom        0.129382     -0.046292     -0.083090
     4   Atom        0.018096     -0.007682     -0.010414
     5   Atom        0.008613     -0.005328     -0.003285
     6   Atom        0.062708     -0.018271     -0.044437
     7   Atom        0.002025     -0.001481     -0.000545
     8   Atom        0.011396     -0.005796     -0.005600
     9   Atom        0.001438     -0.000364     -0.001074
    10   Atom        0.001060     -0.000520     -0.000540
    11   Atom        0.001244      0.000919     -0.002162
    12   Atom        0.002797     -0.001891     -0.000905
    13   Atom        0.001590     -0.000865     -0.000724
    14   Atom        0.000398     -0.000190     -0.000208
    15   Atom        0.003394     -0.001236     -0.002159
    16   Atom        0.000508     -0.000230     -0.000278
    17   Atom        0.000658     -0.000428     -0.000230
    18   Atom        0.002314     -0.001733     -0.000581
    19   Atom        0.001196     -0.000593     -0.000603
    20   Atom        0.000467     -0.000249     -0.000218
    21   Atom        0.000215     -0.000114     -0.000102
    22   Atom        0.000439     -0.000236     -0.000203
    23   Atom        0.000260     -0.000156     -0.000104
    24   Atom        0.000625     -0.000440     -0.000186
    25   Atom        0.000208     -0.000117     -0.000091
    26   Atom        0.000237     -0.000167     -0.000070
 --------------------------------------------------------
                        XY            XZ            YZ
 --------------------------------------------------------
     1   Atom       -0.440524      0.348033     -0.147575
     2   Atom       -0.024049      0.019184     -0.160373
     3   Atom        0.005018      0.016366     -0.058821
     4   Atom        0.009551     -0.004915     -0.001989
     5   Atom       -0.034766      0.026930     -0.007508
     6   Atom       -0.014326      0.021264     -0.045696
     7   Atom       -0.000941      0.001490     -0.001131
     8   Atom       -0.003550      0.004180     -0.000830
     9   Atom       -0.001751     -0.000719      0.000618
    10   Atom       -0.000449      0.000003     -0.000022
    11   Atom       -0.000714      0.001053     -0.004872
    12   Atom       -0.001343     -0.001662      0.000802
    13   Atom       -0.000178     -0.000495     -0.000044
    14   Atom       -0.000154     -0.000083      0.000018
    15   Atom        0.001505      0.001272      0.000164
    16   Atom       -0.000411     -0.000330      0.000161
    17   Atom       -0.000290     -0.000426      0.000107
    18   Atom       -0.000603     -0.001749      0.000114
    19   Atom        0.000063     -0.000220     -0.000032
    20   Atom       -0.000130     -0.000184      0.000031
    21   Atom       -0.000144     -0.000156      0.000060
    22   Atom       -0.000028     -0.000152      0.000004
    23   Atom       -0.000109     -0.000174      0.000044
    24   Atom       -0.000198     -0.000508      0.000078
    25   Atom       -0.000068     -0.000112      0.000022
    26   Atom       -0.000076     -0.000206      0.000036
 --------------------------------------------------------


 ---------------------------------------------------------------------------------
              Anisotropic Spin Dipole Couplings in Principal Axis System
 ---------------------------------------------------------------------------------

       Atom             a.u.   MegaHertz   Gauss  10(-4) cm-1        Axes

              Baa    -0.4343   -58.276   -20.794   -19.439  0.6204  0.6526 -0.4349
     1 C(13)  Bbb    -0.2848   -38.223   -13.639   -12.750 -0.0452  0.5834  0.8109
              Bcc     0.7191    96.498    34.433    32.188  0.7830 -0.4834  0.3915
 
              Baa    -0.1202    -4.929    -1.759    -1.644 -0.0608  0.5848  0.8089
     2 S(33)  Bbb    -0.0992    -4.067    -1.451    -1.357  0.9934  0.1141 -0.0078
              Bcc     0.2194     8.996     3.210     3.001 -0.0969  0.8031 -0.5879
 
              Baa    -0.1273   -17.088    -6.097    -5.700 -0.0629  0.5888  0.8059
     3 C(13)  Bbb    -0.0033    -0.442    -0.158    -0.148  0.0419  0.8083 -0.5873
              Bcc     0.1306    17.530     6.255     5.847  0.9971  0.0032  0.0755
 
              Baa    -0.0115    -6.116    -2.182    -2.040 -0.0176  0.5000  0.8659
     4 H(1)   Bbb    -0.0106    -5.680    -2.027    -1.895 -0.3496  0.8083 -0.4738
              Bcc     0.0221    11.797     4.209     3.935  0.9367  0.3110 -0.1606
 
              Baa    -0.0386    -5.176    -1.847    -1.727  0.6798  0.6236 -0.3860
     5 C(13)  Bbb    -0.0112    -1.506    -0.537    -0.502 -0.0758  0.5832  0.8088
              Bcc     0.0498     6.682     2.384     2.229  0.7295 -0.5205  0.4437
 
              Baa    -0.0794   -10.655    -3.802    -3.554 -0.0613  0.5883  0.8063
     6 C(13)  Bbb     0.0060     0.801     0.286     0.267  0.3878  0.7584 -0.5239
              Bcc     0.0734     9.854     3.516     3.287  0.9197 -0.2806  0.2747
 
              Baa    -0.0022    -1.194    -0.426    -0.398 -0.0155  0.8249  0.5650
     7 H(1)   Bbb    -0.0009    -0.460    -0.164    -0.154 -0.5205 -0.4891  0.6999
              Bcc     0.0031     1.654     0.590     0.552  0.8537 -0.2832  0.4370
 
              Baa    -0.0066    -0.882    -0.315    -0.294 -0.2168  0.0507  0.9749
     8 C(13)  Bbb    -0.0065    -0.872    -0.311    -0.291  0.1962  0.9805 -0.0073
              Bcc     0.0131     1.754     0.626     0.585  0.9563 -0.1897  0.2225
 
              Baa    -0.0015    -0.817    -0.291    -0.272  0.3294  0.7780 -0.5350
     9 H(1)   Bbb    -0.0012    -0.643    -0.229    -0.215  0.4604  0.3624  0.8104
              Bcc     0.0027     1.460     0.521     0.487  0.8243 -0.5132 -0.2389
 
              Baa    -0.0006    -0.343    -0.122    -0.114  0.2495  0.9481  0.1970
    10 H(1)   Bbb    -0.0005    -0.286    -0.102    -0.095 -0.0549 -0.1892  0.9804
              Bcc     0.0012     0.629     0.224     0.210  0.9668 -0.2554  0.0048
 
              Baa    -0.0058    -3.073    -1.096    -1.025 -0.0621  0.5840  0.8094
    11 H(1)   Bbb     0.0009     0.466     0.166     0.156  0.9474  0.2896 -0.1362
              Bcc     0.0049     2.606     0.930     0.869 -0.3140  0.7584 -0.5713
 
              Baa    -0.0024    -0.320    -0.114    -0.107  0.1231  0.9238 -0.3625
    12 C(13)  Bbb    -0.0015    -0.196    -0.070    -0.065  0.4245  0.2812  0.8607
              Bcc     0.0038     0.516     0.184     0.172  0.8970 -0.2599 -0.3575
 
              Baa    -0.0009    -0.125    -0.045    -0.042  0.1678  0.8070  0.5662
    13 C(13)  Bbb    -0.0008    -0.103    -0.037    -0.034  0.1236 -0.5870  0.8001
              Bcc     0.0017     0.228     0.081     0.076  0.9780 -0.0643 -0.1983
 
              Baa    -0.0002    -0.122    -0.043    -0.041  0.2617  0.9353  0.2381
    14 H(1)   Bbb    -0.0002    -0.117    -0.042    -0.039  0.0640 -0.2630  0.9627
              Bcc     0.0004     0.238     0.085     0.079  0.9630 -0.2366 -0.1287
 
              Baa    -0.0025    -1.316    -0.469    -0.439 -0.2532  0.1828  0.9500
    15 H(1)   Bbb    -0.0016    -0.870    -0.310    -0.290 -0.2219  0.9448 -0.2410
              Bcc     0.0041     2.186     0.780     0.729  0.9416  0.2718  0.1986
 
              Baa    -0.0004    -0.225    -0.080    -0.075  0.2007  0.8475 -0.4914
    16 H(1)   Bbb    -0.0004    -0.210    -0.075    -0.070  0.4612  0.3609  0.8106
              Bcc     0.0008     0.435     0.155     0.145  0.8643 -0.3893 -0.3184
 
              Baa    -0.0005    -0.067    -0.024    -0.022  0.2418  0.9703 -0.0026
    17 C(13)  Bbb    -0.0004    -0.054    -0.019    -0.018  0.3519 -0.0852  0.9322
              Bcc     0.0009     0.121     0.043     0.040  0.9043 -0.2263 -0.3621
 
              Baa    -0.0019    -0.990    -0.353    -0.330  0.2369  0.9413  0.2404
    18 H(1)   Bbb    -0.0014    -0.722    -0.258    -0.241  0.3658 -0.3156  0.8755
              Bcc     0.0032     1.712     0.611     0.571  0.9001 -0.1194 -0.4191
 
              Baa    -0.0006    -0.343    -0.122    -0.114  0.0890  0.4687  0.8788
    19 H(1)   Bbb    -0.0006    -0.311    -0.111    -0.104 -0.0884  0.8826 -0.4618
              Bcc     0.0012     0.654     0.233     0.218  0.9921  0.0366 -0.1200
 
              Baa    -0.0003    -0.036    -0.013    -0.012  0.2078  0.9657  0.1554
    20 C(13)  Bbb    -0.0003    -0.035    -0.013    -0.012  0.2055 -0.1984  0.9583
              Bcc     0.0005     0.072     0.026     0.024  0.9563 -0.1672 -0.2397
 
              Baa    -0.0002    -0.090    -0.032    -0.030  0.2082  0.9190 -0.3347
    21 H(1)   Bbb    -0.0002    -0.088    -0.031    -0.029  0.4393  0.2178  0.8715
              Bcc     0.0003     0.178     0.063     0.059  0.8739 -0.3285 -0.3584
 
              Baa    -0.0002    -0.128    -0.046    -0.043  0.1866  0.6827  0.7065
    22 H(1)   Bbb    -0.0002    -0.125    -0.045    -0.042 -0.1207  0.7296 -0.6732
              Bcc     0.0005     0.253     0.090     0.084  0.9750 -0.0404 -0.2186
 
              Baa    -0.0002    -0.025    -0.009    -0.008  0.1779  0.9716 -0.1560
    23 C(13)  Bbb    -0.0002    -0.023    -0.008    -0.008  0.3877  0.0765  0.9186
              Bcc     0.0004     0.048     0.017     0.016  0.9045 -0.2239 -0.3631
 
              Baa    -0.0005    -0.255    -0.091    -0.085  0.2673  0.9395  0.2142
    24 H(1)   Bbb    -0.0004    -0.227    -0.081    -0.076  0.3672 -0.3048  0.8788
              Bcc     0.0009     0.482     0.172     0.161  0.8909 -0.1562 -0.4264
 
              Baa    -0.0001    -0.070    -0.025    -0.023  0.1957  0.9807 -0.0026
    25 H(1)   Bbb    -0.0001    -0.068    -0.024    -0.023  0.3037 -0.0581  0.9510
              Bcc     0.0003     0.138     0.049     0.046  0.9325 -0.1869 -0.3092
 
              Baa    -0.0002    -0.097    -0.035    -0.032  0.2704  0.9418  0.1999
    26 H(1)   Bbb    -0.0002    -0.092    -0.033    -0.031  0.3839 -0.2959  0.8747
              Bcc     0.0004     0.189     0.067     0.063  0.8829 -0.1598 -0.4416
 

 ---------------------------------------------------------------------------------


 Test job not archived.
 1\1\GINC-N20\SP\UB3LYP\3-21G\C10H15S1(2)\SIM_JOBR9774\29-Mar-2018\0\\#
  b3lyp/3-21g nosymm guess=(local,save) pop=(full) geom=connectivity pu
 nch=mo iop(3/33=1)\\Title Card Required\\0,2\C,0,0.351087,-1.23151,0.8
 97221\S,0,0.076671,-2.641048,1.910217\C,0,1.688866,-0.980206,0.80796\H
 ,0,2.129873,-0.170239,0.243134\C,0,2.505629,-1.923765,1.548739\C,0,1.7
 7436,-2.879593,2.191252\H,0,4.41133,-2.373833,2.439157\C,0,3.996822,-1
 .819967,1.571913\H,0,4.30317,-3.41421,0.124052\H,0,6.551175,-2.797486,
 1.14103\H,0,2.127682,-3.692097,2.799686\C,0,4.606725,-2.358627,0.26755
 6\C,0,6.136174,-2.24507,0.275906\H,0,8.689434,-3.225564,-0.156954\H,0,
 4.298796,-0.76284,1.725679\H,0,6.44478,-3.840761,-1.172943\C,0,6.74275
 9,-2.784698,-1.026227\H,0,4.188178,-1.806934,-0.596844\H,0,6.435716,-1
 .189117,0.420912\C,0,8.273872,-2.672647,-1.022065\H,0,8.636463,-4.2651
 63,-2.470744\H,0,8.573662,-1.616182,-0.877829\C,0,8.882626,-3.208474,-
 2.316003\H,0,6.329128,-2.23393,-1.892875\H,0,9.975053,-3.124636,-2.304
 165\H,0,8.520788,-2.656938,-3.191203\\Version=EM64L-G09RevA.01\HF=-784
 .0899218\S2=0.762828\S2-1=0.\S2A=0.750046\RMSD=9.024e-09\Dipole=0.8020
 921,-0.0505621,0.0021654\Quadrupole=3.754081,-0.8607538,-2.8933273,-3.
 3576411,2.2514363,-2.5739904\PG=C01 [X(C10H15S1)]\\@


 "PERFECTION IS NOT AN ACCIDENT"
         --  EAGLE ELECTRIC MANUFACTURING CO.,INC. NY
 Job cpu time:  0 days  0 hours  5 minutes 39.6 seconds.
 File lengths (MBytes):  RWF=     19 Int=      0 D2E=      0 Chk=      2 Scr=      1
 Normal termination of Gaussian 09 at Thu Mar 29 09:11:45 2018.
